 Entering Gaussian System, Link 0=g16
 Input=charges-hirshfeld.com
 Output=charges-hirshfeld.log
 Initial command:
 /opt/modules/software/gaussian/G16-C01/l1.exe "/home/futera/Documents/2025-nife2o4-params/atomic-charges/pbe0-sbkjc/Gau-3778225.inp" -scrdir="/home/futera/Documents/2025-nife2o4-params/atomic-charges/pbe0-sbkjc/"
 Entering Link 1 = /opt/modules/software/gaussian/G16-C01/l1.exe PID=   3778226.
  
 Copyright (c) 1988-2019, Gaussian, Inc.  All Rights Reserved.
  
 This is part of the Gaussian(R) 16 program.  It is based on
 the Gaussian(R) 09 system (copyright 2009, Gaussian, Inc.),
 the Gaussian(R) 03 system (copyright 2003, Gaussian, Inc.),
 the Gaussian(R) 98 system (copyright 1998, Gaussian, Inc.),
 the Gaussian(R) 94 system (copyright 1995, Gaussian, Inc.),
 the Gaussian 92(TM) system (copyright 1992, Gaussian, Inc.),
 the Gaussian 90(TM) system (copyright 1990, Gaussian, Inc.),
 the Gaussian 88(TM) system (copyright 1988, Gaussian, Inc.),
 the Gaussian 86(TM) system (copyright 1986, Carnegie Mellon
 University), and the Gaussian 82(TM) system (copyright 1983,
 Carnegie Mellon University). Gaussian is a federally registered
 trademark of Gaussian, Inc.
  
 This software contains proprietary and confidential information,
 including trade secrets, belonging to Gaussian, Inc.
  
 This software is provided under written license and may be
 used, copied, transmitted, or stored only in accord with that
 written license.
  
 The following legend is applicable only to US Government
 contracts under FAR:
  
                    RESTRICTED RIGHTS LEGEND
  
 Use, reproduction and disclosure by the US Government is
 subject to restrictions as set forth in subparagraphs (a)
 and (c) of the Commercial Computer Software - Restricted
 Rights clause in FAR 52.227-19.
  
 Gaussian, Inc.
 340 Quinnipiac St., Bldg. 40, Wallingford CT 06492
  
  
 ---------------------------------------------------------------
 Warning -- This program may not be used in any manner that
 competes with the business of Gaussian, Inc. or will provide
 assistance to any competitor of Gaussian, Inc.  The licensee
 of this program is prohibited from giving any competitor of
 Gaussian, Inc. access to this program.  By using this program,
 the user acknowledges that Gaussian, Inc. is engaged in the
 business of creating and licensing software in the field of
 computational chemistry and represents and warrants to the
 licensee that it is not a competitor of Gaussian, Inc. and that
 it will not use this program in any manner prohibited above.
 ---------------------------------------------------------------
  

 Cite this work as:
 Gaussian 16, Revision C.01,
 M. J. Frisch, G. W. Trucks, H. B. Schlegel, G. E. Scuseria, 
 M. A. Robb, J. R. Cheeseman, G. Scalmani, V. Barone, 
 G. A. Petersson, H. Nakatsuji, X. Li, M. Caricato, A. V. Marenich, 
 J. Bloino, B. G. Janesko, R. Gomperts, B. Mennucci, H. P. Hratchian, 
 J. V. Ortiz, A. F. Izmaylov, J. L. Sonnenberg, D. Williams-Young, 
 F. Ding, F. Lipparini, F. Egidi, J. Goings, B. Peng, A. Petrone, 
 T. Henderson, D. Ranasinghe, V. G. Zakrzewski, J. Gao, N. Rega, 
 G. Zheng, W. Liang, M. Hada, M. Ehara, K. Toyota, R. Fukuda, 
 J. Hasegawa, M. Ishida, T. Nakajima, Y. Honda, O. Kitao, H. Nakai, 
 T. Vreven, K. Throssell, J. A. Montgomery, Jr., J. E. Peralta, 
 F. Ogliaro, M. J. Bearpark, J. J. Heyd, E. N. Brothers, K. N. Kudin, 
 V. N. Staroverov, T. A. Keith, R. Kobayashi, J. Normand, 
 K. Raghavachari, A. P. Rendell, J. C. Burant, S. S. Iyengar, 
 J. Tomasi, M. Cossi, J. M. Millam, M. Klene, C. Adamo, R. Cammi, 
 J. W. Ochterski, R. L. Martin, K. Morokuma, O. Farkas, 
 J. B. Foresman, and D. J. Fox, Gaussian, Inc., Wallingford CT, 2019.
 
 ******************************************
 Gaussian 16:  ES64L-G16RevC.01  3-Jul-2019
                20-Oct-2025 
 ******************************************
 %mem=32GB
 %nproc=8
 Will use up to    8 processors via shared memory.
 %chk=charges-hirshfeld.chk
 ------------------------------------------------------
 #p PBE1PBE/GenECP SCF(Tight,QC,Restart) Pop(Hirshfeld)
 ------------------------------------------------------
 1/38=1,172=1/1;
 2/12=2,17=6,18=5,40=1/2;
 3/5=7,11=2,16=1,17=8,25=1,30=1,74=-13,116=-2/1,2,3;
 4/5=7,6=200000000/1;
 5/5=2,8=3,32=2,38=6/8;
 6/7=2,8=2,9=2,10=2,28=1,79=1/1;
 99/5=1,9=1/99;
 Leave Link    1 at Mon Oct 20 08:34:24 2025, MaxMem=  4294967296 cpu:               0.1 elap:               0.0
 (Enter /opt/modules/software/gaussian/G16-C01/l101.exe)
 ---------------------------
 Nickel ferrate (PBE0/SBKJC)
 ---------------------------
 Symbolic Z-matrix:
 Charge =  0 Multiplicity = 1
 Fe                    14.5      15.19     14.9 
 Fe                    10.       12.6      14.9 
 Fe                    13.       14.33     19.79 
 Fe                    13.       17.79     14.9 
 Fe                    16.       12.6      14.9 
 Fe                    16.       16.06     10. 
 Fe                    18.99     17.79     14.9 
 Fe                    10.       14.33     12.45 
 Fe                    13.       16.06     17.34 
 Fe                    13.       19.52     12.45 
 Fe                    16.       10.87     17.34 
 Fe                    16.       14.33     12.45 
 Fe                    18.99     16.06     17.34 
 Fe                    11.5      15.19     14.9 
 Fe                    14.5      16.92     19.79 
 Fe                    14.5      20.39     14.9 
 Fe                    14.5      10.       14.9 
 Fe                    14.5      13.46     10. 
 Fe                    17.5      15.19     14.9 
 Ni                    13.       12.6      16.73 
 Ni                    13.       16.06     11.84 
 Ni                    16.       17.79     16.73 
 Ni                    13.       12.6      13.06 
 Ni                    16.       14.33     17.96 
 Ni                    16.       17.79     13.06 
 O                     11.61     16.86     16.08 
 O                     14.61     11.67     16.08 
 O                     14.61     15.13     11.18 
 O                     17.6      16.86     16.08 
 O                     13.       14.45     16.08 
 O                     13.       17.92     11.18 
 O                     16.       19.65     16.08 
 O                     16.       12.72     11.18 
 O                     18.99     14.45     16.08 
 O                     13.       12.6      18.7 
 O                     13.       16.06     13.81 
 O                     16.       17.79     18.7 
 O                     16.       10.87     13.81 
 O                     18.99     16.06     13.81 
 O                     11.39     11.67     16.08 
 O                     11.39     15.13     11.18 
 O                     14.39     16.86     16.08 
 O                     17.39     11.67     16.08 
 O                     17.39     15.13     11.18 
 O                     11.39     13.52     13.72 
 O                     14.39     15.26     18.61 
 O                     14.39     18.72     13.72 
 O                     17.39     13.52     13.72 
 O                     10.       15.93     13.72 
 O                     13.       17.66     18.61 
 O                     13.       10.74     13.72 
 O                     16.       12.47     18.61 
 O                     16.       15.93     13.72 
 O                     10.       14.33     15.99 
 O                     13.       19.52     15.99 
 O                     13.       12.6      11.09 
 O                     16.       14.33     15.99 
 O                     16.       17.79     11.09 
 O                     11.61     15.26     18.61 
 O                     11.61     18.72     13.72 
 O                     14.61     13.52     13.72 
 O                     17.6      15.26     18.61 
 O                     17.6      18.72     13.72 
 
 ITRead=  0  0  0  0  0  0  0  0  0  0  0  0  0  0  0  0  0  0  0  0
 ITRead=  0  0  0  0  0  0  0  0  0  0  0  0  0  0  0  0  0  0  0  0
 ITRead=  0  0  0  0  0  0  0  0  0  0  0  0  0  0  0  0  0  0  0  0
 ITRead=  0  0  0
 MicOpt= -1 -1 -1 -1 -1 -1 -1 -1 -1 -1 -1 -1 -1 -1 -1 -1 -1 -1 -1 -1
 MicOpt= -1 -1 -1 -1 -1 -1 -1 -1 -1 -1 -1 -1 -1 -1 -1 -1 -1 -1 -1 -1
 MicOpt= -1 -1 -1 -1 -1 -1 -1 -1 -1 -1 -1 -1 -1 -1 -1 -1 -1 -1 -1 -1
 MicOpt= -1 -1 -1
 NAtoms=     63 NQM=       63 NQMF=       0 NMMI=      0 NMMIF=      0
                NMic=       0 NMicF=      0.
                    Isotopes and Nuclear Properties:
 (Nuclear quadrupole moments (NQMom) in fm**2, nuclear magnetic moments (NMagM)
  in nuclear magnetons)

  Atom         1           2           3           4           5           6           7           8           9          10
 IAtWgt=          56          56          56          56          56          56          56          56          56          56
 AtmWgt=  55.9349393  55.9349393  55.9349393  55.9349393  55.9349393  55.9349393  55.9349393  55.9349393  55.9349393  55.9349393
 NucSpn=           0           0           0           0           0           0           0           0           0           0
 AtZEff=  -0.0000000  -0.0000000  -0.0000000  -0.0000000  -0.0000000  -0.0000000  -0.0000000  -0.0000000  -0.0000000  -0.0000000
 NQMom=    0.0000000   0.0000000   0.0000000   0.0000000   0.0000000   0.0000000   0.0000000   0.0000000   0.0000000   0.0000000
 NMagM=    0.0000000   0.0000000   0.0000000   0.0000000   0.0000000   0.0000000   0.0000000   0.0000000   0.0000000   0.0000000
 AtZNuc=  26.0000000  26.0000000  26.0000000  26.0000000  26.0000000  26.0000000  26.0000000  26.0000000  26.0000000  26.0000000

  Atom        11          12          13          14          15          16          17          18          19          20
 IAtWgt=          56          56          56          56          56          56          56          56          56          58
 AtmWgt=  55.9349393  55.9349393  55.9349393  55.9349393  55.9349393  55.9349393  55.9349393  55.9349393  55.9349393  57.9353471
 NucSpn=           0           0           0           0           0           0           0           0           0           0
 AtZEff=  -0.0000000  -0.0000000  -0.0000000  -0.0000000  -0.0000000  -0.0000000  -0.0000000  -0.0000000  -0.0000000  -0.0000000
 NQMom=    0.0000000   0.0000000   0.0000000   0.0000000   0.0000000   0.0000000   0.0000000   0.0000000   0.0000000   0.0000000
 NMagM=    0.0000000   0.0000000   0.0000000   0.0000000   0.0000000   0.0000000   0.0000000   0.0000000   0.0000000   0.0000000
 AtZNuc=  26.0000000  26.0000000  26.0000000  26.0000000  26.0000000  26.0000000  26.0000000  26.0000000  26.0000000  28.0000000

  Atom        21          22          23          24          25          26          27          28          29          30
 IAtWgt=          58          58          58          58          58          16          16          16          16          16
 AtmWgt=  57.9353471  57.9353471  57.9353471  57.9353471  57.9353471  15.9949146  15.9949146  15.9949146  15.9949146  15.9949146
 NucSpn=           0           0           0           0           0           0           0           0           0           0
 AtZEff=  -0.0000000  -0.0000000  -0.0000000  -0.0000000  -0.0000000  -0.0000000  -0.0000000  -0.0000000  -0.0000000  -0.0000000
 NQMom=    0.0000000   0.0000000   0.0000000   0.0000000   0.0000000   0.0000000   0.0000000   0.0000000   0.0000000   0.0000000
 NMagM=    0.0000000   0.0000000   0.0000000   0.0000000   0.0000000   0.0000000   0.0000000   0.0000000   0.0000000   0.0000000
 AtZNuc=  28.0000000  28.0000000  28.0000000  28.0000000  28.0000000   8.0000000   8.0000000   8.0000000   8.0000000   8.0000000

  Atom        31          32          33          34          35          36          37          38          39          40
 IAtWgt=          16          16          16          16          16          16          16          16          16          16
 AtmWgt=  15.9949146  15.9949146  15.9949146  15.9949146  15.9949146  15.9949146  15.9949146  15.9949146  15.9949146  15.9949146
 NucSpn=           0           0           0           0           0           0           0           0           0           0
 AtZEff=  -0.0000000  -0.0000000  -0.0000000  -0.0000000  -0.0000000  -0.0000000  -0.0000000  -0.0000000  -0.0000000  -0.0000000
 NQMom=    0.0000000   0.0000000   0.0000000   0.0000000   0.0000000   0.0000000   0.0000000   0.0000000   0.0000000   0.0000000
 NMagM=    0.0000000   0.0000000   0.0000000   0.0000000   0.0000000   0.0000000   0.0000000   0.0000000   0.0000000   0.0000000
 AtZNuc=   8.0000000   8.0000000   8.0000000   8.0000000   8.0000000   8.0000000   8.0000000   8.0000000   8.0000000   8.0000000

  Atom        41          42          43          44          45          46          47          48          49          50
 IAtWgt=          16          16          16          16          16          16          16          16          16          16
 AtmWgt=  15.9949146  15.9949146  15.9949146  15.9949146  15.9949146  15.9949146  15.9949146  15.9949146  15.9949146  15.9949146
 NucSpn=           0           0           0           0           0           0           0           0           0           0
 AtZEff=  -0.0000000  -0.0000000  -0.0000000  -0.0000000  -0.0000000  -0.0000000  -0.0000000  -0.0000000  -0.0000000  -0.0000000
 NQMom=    0.0000000   0.0000000   0.0000000   0.0000000   0.0000000   0.0000000   0.0000000   0.0000000   0.0000000   0.0000000
 NMagM=    0.0000000   0.0000000   0.0000000   0.0000000   0.0000000   0.0000000   0.0000000   0.0000000   0.0000000   0.0000000
 AtZNuc=   8.0000000   8.0000000   8.0000000   8.0000000   8.0000000   8.0000000   8.0000000   8.0000000   8.0000000   8.0000000

  Atom        51          52          53          54          55          56          57          58          59          60
 IAtWgt=          16          16          16          16          16          16          16          16          16          16
 AtmWgt=  15.9949146  15.9949146  15.9949146  15.9949146  15.9949146  15.9949146  15.9949146  15.9949146  15.9949146  15.9949146
 NucSpn=           0           0           0           0           0           0           0           0           0           0
 AtZEff=  -0.0000000  -0.0000000  -0.0000000  -0.0000000  -0.0000000  -0.0000000  -0.0000000  -0.0000000  -0.0000000  -0.0000000
 NQMom=    0.0000000   0.0000000   0.0000000   0.0000000   0.0000000   0.0000000   0.0000000   0.0000000   0.0000000   0.0000000
 NMagM=    0.0000000   0.0000000   0.0000000   0.0000000   0.0000000   0.0000000   0.0000000   0.0000000   0.0000000   0.0000000
 AtZNuc=   8.0000000   8.0000000   8.0000000   8.0000000   8.0000000   8.0000000   8.0000000   8.0000000   8.0000000   8.0000000

  Atom        61          62          63
 IAtWgt=          16          16          16
 AtmWgt=  15.9949146  15.9949146  15.9949146
 NucSpn=           0           0           0
 AtZEff=  -0.0000000  -0.0000000  -0.0000000
 NQMom=    0.0000000   0.0000000   0.0000000
 NMagM=    0.0000000   0.0000000   0.0000000
 AtZNuc=   8.0000000   8.0000000   8.0000000
 Leave Link  101 at Mon Oct 20 08:34:24 2025, MaxMem=  4294967296 cpu:               0.8 elap:               0.1
 (Enter /opt/modules/software/gaussian/G16-C01/l202.exe)
 Stoichiometry    Fe19Ni6O38
 Framework group  C1[X(Fe19Ni6O38)]
 Deg. of freedom   183
 Full point group                 C1      NOp   1
 Largest Abelian subgroup         C1      NOp   1
 Largest concise Abelian subgroup C1      NOp   1
                         Standard orientation:                         
 ---------------------------------------------------------------------
 Center     Atomic      Atomic             Coordinates (Angstroms)
 Number     Number       Type             X           Y           Z
 ---------------------------------------------------------------------
      1         26           0       -0.002927   -0.003199   -0.001747
      2         26           0       -4.470899    0.983185    2.452305
      3         26           0       -1.611031   -4.282377    2.448628
      4         26           0        1.521645    0.823506    2.448200
      5         26           0       -1.518797   -0.828467   -2.446982
      6         26           0        1.614129    4.286840   -2.450745
      7         26           0        4.468827   -0.985126   -2.442922
      8         26           0       -2.904436    3.540839    2.450423
      9         26           0       -0.044569   -1.724723    2.446747
     10         26           0        3.088108    3.381159    2.446318
     11         26           0       -3.085011   -3.376696   -2.448435
     12         26           0        0.047666    1.729187   -2.448864
     13         26           0        2.902613   -3.533356   -2.444375
     14         26           0       -1.478978    0.902627    2.447896
     15         26           0        1.380890   -4.362935    2.444220
     16         26           0        4.522268    0.744385    2.448503
     17         26           0       -4.519420   -0.749346   -2.447285
     18         26           0       -1.386495    4.365961   -2.451049
     19         26           0        1.473124   -0.909025   -2.451390
     20         28           0       -3.040385   -1.647276    0.612956
     21         28           0        0.092291    3.458607    0.612528
     22         28           0        2.952159   -1.806955    0.608851
     23         28           0       -2.949062    1.811419   -0.610968
     24         28           0       -0.089443   -3.463567   -0.611310
     25         28           0        3.043482    1.651740   -0.615073
     26          8           0       -0.000935   -0.002557    3.538507
     27          8           0       -3.041377   -1.654530   -1.356675
     28          8           0        0.091548    3.460777   -1.360438
     29          8           0        2.946247   -1.811190   -1.352615
     30          8           0       -1.414285   -0.768733    1.267909
     31          8           0        1.727342    4.348012    1.268857
     32          8           0        4.586961   -0.926975    1.268515
     33          8           0       -1.321802    2.694601   -3.631036
     34          8           0        1.532897   -2.577366   -3.623213
     35          8           0       -3.089406   -3.503851    1.269940
     36          8           0        0.043271    1.602032    1.269511
     37          8           0        2.903138   -3.663530    1.265835
     38          8           0       -2.997171   -0.049940   -3.625670
     39          8           0        2.990453   -0.206600   -3.621610
     40          8           0       -4.625672   -0.682277    1.272609
     41          8           0       -1.492747    4.433030    1.268845
     42          8           0        1.366872   -0.841956    1.268504
     43          8           0       -1.673570   -2.493928   -3.626677
     44          8           0        1.459356    2.621378   -3.630441
     45          8           0       -2.957021    1.807811    1.357286
     46          8           0       -0.088451   -3.456314    1.358321
     47          8           0        3.044225    1.649569    1.357893
     48          8           0       -0.004919   -0.003841   -3.542001
     49          8           0       -1.543671    2.573987    3.627884
     50          8           0        1.316197   -2.691575    3.624207
     51          8           0       -4.584113    0.922014   -1.267297
     52          8           0       -1.724245   -4.343548   -1.270974
     53          8           0        1.408431    0.762335   -1.271403
     54          8           0       -2.992525    0.204659    3.630993
     55          8           0        3.000020    0.044980    3.626888
     56          8           0       -2.900041    3.667993   -1.267952
     57          8           0       -0.040422   -1.606993   -1.268293
     58          8           0        3.092503    3.508314   -1.272057
     59          8           0       -1.456258   -2.616915    3.628324
     60          8           0        1.676418    2.488968    3.627895
     61          8           0       -1.372726    0.835558   -1.271998
     62          8           0        1.490924   -4.425547   -1.262797
     63          8           0        4.623600    0.680335   -1.263226
 ---------------------------------------------------------------------
 Rotational constants (GHZ):           0.0219673           0.0219629           0.0190309
 Leave Link  202 at Mon Oct 20 08:34:24 2025, MaxMem=  4294967296 cpu:               0.0 elap:               0.0
 (Enter /opt/modules/software/gaussian/G16-C01/l301.exe)
 General basis read from cards:  (5D, 7F)
 Centers:      26     27     28     29     30     31     32     33     34     35
 Centers:      36     37     38     39     40     41     42     43     44     45
 Centers:      46     47     48     49     50     51     52     53     54     55
 Centers:      56     57     58     59     60     61     62     63
 SP 3 1.00
     Exponent=  8.5190000000D+00 Coefficients= -1.4551000000D-01  1.1007000000D-01
     Exponent=  2.0730000000D+00 Coefficients=  8.2860000000D-02  3.4969000000D-01
     Exponent=  6.4710000000D-01 Coefficients=  7.4325000000D-01  4.8093000000D-01
 SP 1 1.00
     Exponent=  2.0000000000D-01 Coefficients=  2.8472000000D-01  3.0727000000D-01
 ****
 Centers:       1      2      3      4      5      6      7      8      9     10
 Centers:      11     12     13     14     15     16     17     18     19
 SP 4 1.00
     Exponent=  7.0280000000D+01 Coefficients= -2.6110000000D-03 -7.9400000000D-03
     Exponent=  6.0610000000D+00 Coefficients= -6.9243500000D-01 -2.9015100000D-01
     Exponent=  4.1340000000D+00 Coefficients=  3.6253000000D-01  5.9102800000D-01
     Exponent=  1.4210000000D+00 Coefficients=  1.1406450000D+00  7.1944800000D-01
 SP 1 1.00
     Exponent=  5.1210000000D-01 Coefficients=  1.0000000000D+00  1.0000000000D+00
 SP 2 1.00
     Exponent=  1.9780000000D+00 Coefficients= -9.8172000000D-02 -3.3731000000D-02
     Exponent=  1.2130000000D-01 Coefficients=  1.0269570000D+00  1.0044620000D+00
 SP 1 1.00
     Exponent=  4.1000000000D-02 Coefficients=  1.0000000000D+00  1.0000000000D+00
 D 4 1.00
     Exponent=  4.7100000000D+01 Coefficients=  2.6608000000D-02
     Exponent=  1.3120000000D+01 Coefficients=  1.5201000000D-01
     Exponent=  4.4780000000D+00 Coefficients=  4.1382700000D-01
     Exponent=  1.5810000000D+00 Coefficients=  6.0554200000D-01
 D 1 1.00
     Exponent=  5.1000000000D-01 Coefficients=  1.0000000000D+00
 D 1 1.00
     Exponent=  1.3820000000D-01 Coefficients=  1.0000000000D+00
 ****
 Centers:      20     21     22     23     24     25
 SP 4 1.00
     Exponent=  8.9360000000D+01 Coefficients= -5.2200000000D-03 -7.5290000000D-03
     Exponent=  7.2650000000D+00 Coefficients= -6.8399300000D-01 -4.4586200000D-01
     Exponent=  5.5720000000D+00 Coefficients=  2.5105000000D-01  7.0636400000D-01
     Exponent=  1.8500000000D+00 Coefficients=  1.2364510000D+00  7.5360600000D-01
 SP 1 1.00
     Exponent=  6.5940000000D-01 Coefficients=  1.0000000000D+00  1.0000000000D+00
 SP 2 1.00
     Exponent=  3.2350000000D+00 Coefficients= -6.3418000000D-02  1.1360000000D-03
     Exponent=  1.2950000000D-01 Coefficients=  1.0132370000D+00  9.9989500000D-01
 SP 1 1.00
     Exponent=  4.3270000000D-02 Coefficients=  1.0000000000D+00  1.0000000000D+00
 D 4 1.00
     Exponent=  5.8730000000D+01 Coefficients=  2.6246000000D-02
     Exponent=  1.6710000000D+01 Coefficients=  1.5033400000D-01
     Exponent=  5.7830000000D+00 Coefficients=  4.1338500000D-01
     Exponent=  2.0640000000D+00 Coefficients=  6.0411400000D-01
 D 1 1.00
     Exponent=  6.7520000000D-01 Coefficients=  1.0000000000D+00
 D 1 1.00
     Exponent=  1.8250000000D-01 Coefficients=  1.0000000000D+00
 ****
 ======================================================================================================
                                       Pseudopotential Parameters
 ======================================================================================================
  Center     Atomic      Valence      Angular      Power
  Number     Number     Electrons     Momentum     of R      Exponent        Coefficient   SO-Coeffient
 ======================================================================================================
    1         26           16
                                      D and up 
                                                     1       17.6191000       -3.89423000    0.00000000
                                      S - D
                                                     0        2.3315000        3.81706000    0.00000000
                                                     2        6.0836500      172.05349000    0.00000000
                                                     2        5.2665900     -144.70056000    0.00000000
                                      P - D
                                                     0       49.4045600        4.13737000    0.00000000
                                                     2       11.4018300       82.73696000    0.00000000
    2         26           16
                                      D and up 
                                                     1       17.6191000       -3.89423000    0.00000000
                                      S - D
                                                     0        2.3315000        3.81706000    0.00000000
                                                     2        6.0836500      172.05349000    0.00000000
                                                     2        5.2665900     -144.70056000    0.00000000
                                      P - D
                                                     0       49.4045600        4.13737000    0.00000000
                                                     2       11.4018300       82.73696000    0.00000000
    3         26           16
                                      D and up 
                                                     1       17.6191000       -3.89423000    0.00000000
                                      S - D
                                                     0        2.3315000        3.81706000    0.00000000
                                                     2        6.0836500      172.05349000    0.00000000
                                                     2        5.2665900     -144.70056000    0.00000000
                                      P - D
                                                     0       49.4045600        4.13737000    0.00000000
                                                     2       11.4018300       82.73696000    0.00000000
    4         26           16
                                      D and up 
                                                     1       17.6191000       -3.89423000    0.00000000
                                      S - D
                                                     0        2.3315000        3.81706000    0.00000000
                                                     2        6.0836500      172.05349000    0.00000000
                                                     2        5.2665900     -144.70056000    0.00000000
                                      P - D
                                                     0       49.4045600        4.13737000    0.00000000
                                                     2       11.4018300       82.73696000    0.00000000
    5         26           16
                                      D and up 
                                                     1       17.6191000       -3.89423000    0.00000000
                                      S - D
                                                     0        2.3315000        3.81706000    0.00000000
                                                     2        6.0836500      172.05349000    0.00000000
                                                     2        5.2665900     -144.70056000    0.00000000
                                      P - D
                                                     0       49.4045600        4.13737000    0.00000000
                                                     2       11.4018300       82.73696000    0.00000000
    6         26           16
                                      D and up 
                                                     1       17.6191000       -3.89423000    0.00000000
                                      S - D
                                                     0        2.3315000        3.81706000    0.00000000
                                                     2        6.0836500      172.05349000    0.00000000
                                                     2        5.2665900     -144.70056000    0.00000000
                                      P - D
                                                     0       49.4045600        4.13737000    0.00000000
                                                     2       11.4018300       82.73696000    0.00000000
    7         26           16
                                      D and up 
                                                     1       17.6191000       -3.89423000    0.00000000
                                      S - D
                                                     0        2.3315000        3.81706000    0.00000000
                                                     2        6.0836500      172.05349000    0.00000000
                                                     2        5.2665900     -144.70056000    0.00000000
                                      P - D
                                                     0       49.4045600        4.13737000    0.00000000
                                                     2       11.4018300       82.73696000    0.00000000
    8         26           16
                                      D and up 
                                                     1       17.6191000       -3.89423000    0.00000000
                                      S - D
                                                     0        2.3315000        3.81706000    0.00000000
                                                     2        6.0836500      172.05349000    0.00000000
                                                     2        5.2665900     -144.70056000    0.00000000
                                      P - D
                                                     0       49.4045600        4.13737000    0.00000000
                                                     2       11.4018300       82.73696000    0.00000000
    9         26           16
                                      D and up 
                                                     1       17.6191000       -3.89423000    0.00000000
                                      S - D
                                                     0        2.3315000        3.81706000    0.00000000
                                                     2        6.0836500      172.05349000    0.00000000
                                                     2        5.2665900     -144.70056000    0.00000000
                                      P - D
                                                     0       49.4045600        4.13737000    0.00000000
                                                     2       11.4018300       82.73696000    0.00000000
   10         26           16
                                      D and up 
                                                     1       17.6191000       -3.89423000    0.00000000
                                      S - D
                                                     0        2.3315000        3.81706000    0.00000000
                                                     2        6.0836500      172.05349000    0.00000000
                                                     2        5.2665900     -144.70056000    0.00000000
                                      P - D
                                                     0       49.4045600        4.13737000    0.00000000
                                                     2       11.4018300       82.73696000    0.00000000
   11         26           16
                                      D and up 
                                                     1       17.6191000       -3.89423000    0.00000000
                                      S - D
                                                     0        2.3315000        3.81706000    0.00000000
                                                     2        6.0836500      172.05349000    0.00000000
                                                     2        5.2665900     -144.70056000    0.00000000
                                      P - D
                                                     0       49.4045600        4.13737000    0.00000000
                                                     2       11.4018300       82.73696000    0.00000000
   12         26           16
                                      D and up 
                                                     1       17.6191000       -3.89423000    0.00000000
                                      S - D
                                                     0        2.3315000        3.81706000    0.00000000
                                                     2        6.0836500      172.05349000    0.00000000
                                                     2        5.2665900     -144.70056000    0.00000000
                                      P - D
                                                     0       49.4045600        4.13737000    0.00000000
                                                     2       11.4018300       82.73696000    0.00000000
   13         26           16
                                      D and up 
                                                     1       17.6191000       -3.89423000    0.00000000
                                      S - D
                                                     0        2.3315000        3.81706000    0.00000000
                                                     2        6.0836500      172.05349000    0.00000000
                                                     2        5.2665900     -144.70056000    0.00000000
                                      P - D
                                                     0       49.4045600        4.13737000    0.00000000
                                                     2       11.4018300       82.73696000    0.00000000
   14         26           16
                                      D and up 
                                                     1       17.6191000       -3.89423000    0.00000000
                                      S - D
                                                     0        2.3315000        3.81706000    0.00000000
                                                     2        6.0836500      172.05349000    0.00000000
                                                     2        5.2665900     -144.70056000    0.00000000
                                      P - D
                                                     0       49.4045600        4.13737000    0.00000000
                                                     2       11.4018300       82.73696000    0.00000000
   15         26           16
                                      D and up 
                                                     1       17.6191000       -3.89423000    0.00000000
                                      S - D
                                                     0        2.3315000        3.81706000    0.00000000
                                                     2        6.0836500      172.05349000    0.00000000
                                                     2        5.2665900     -144.70056000    0.00000000
                                      P - D
                                                     0       49.4045600        4.13737000    0.00000000
                                                     2       11.4018300       82.73696000    0.00000000
   16         26           16
                                      D and up 
                                                     1       17.6191000       -3.89423000    0.00000000
                                      S - D
                                                     0        2.3315000        3.81706000    0.00000000
                                                     2        6.0836500      172.05349000    0.00000000
                                                     2        5.2665900     -144.70056000    0.00000000
                                      P - D
                                                     0       49.4045600        4.13737000    0.00000000
                                                     2       11.4018300       82.73696000    0.00000000
   17         26           16
                                      D and up 
                                                     1       17.6191000       -3.89423000    0.00000000
                                      S - D
                                                     0        2.3315000        3.81706000    0.00000000
                                                     2        6.0836500      172.05349000    0.00000000
                                                     2        5.2665900     -144.70056000    0.00000000
                                      P - D
                                                     0       49.4045600        4.13737000    0.00000000
                                                     2       11.4018300       82.73696000    0.00000000
   18         26           16
                                      D and up 
                                                     1       17.6191000       -3.89423000    0.00000000
                                      S - D
                                                     0        2.3315000        3.81706000    0.00000000
                                                     2        6.0836500      172.05349000    0.00000000
                                                     2        5.2665900     -144.70056000    0.00000000
                                      P - D
                                                     0       49.4045600        4.13737000    0.00000000
                                                     2       11.4018300       82.73696000    0.00000000
   19         26           16
                                      D and up 
                                                     1       17.6191000       -3.89423000    0.00000000
                                      S - D
                                                     0        2.3315000        3.81706000    0.00000000
                                                     2        6.0836500      172.05349000    0.00000000
                                                     2        5.2665900     -144.70056000    0.00000000
                                      P - D
                                                     0       49.4045600        4.13737000    0.00000000
                                                     2       11.4018300       82.73696000    0.00000000
   20         28           18
                                      D and up 
                                                     1       21.3637300       -3.99337000    0.00000000
                                      S - D
                                                     0        2.2181700        3.42572000    0.00000000
                                                     2        6.7158500      218.54146000    0.00000000
                                                     2        5.8085600     -184.10961000    0.00000000
                                      P - D
                                                     0       56.4535300        3.87540000    0.00000000
                                                     2       13.6653400       99.68289000    0.00000000
   21         28           18
                                      D and up 
                                                     1       21.3637300       -3.99337000    0.00000000
                                      S - D
                                                     0        2.2181700        3.42572000    0.00000000
                                                     2        6.7158500      218.54146000    0.00000000
                                                     2        5.8085600     -184.10961000    0.00000000
                                      P - D
                                                     0       56.4535300        3.87540000    0.00000000
                                                     2       13.6653400       99.68289000    0.00000000
   22         28           18
                                      D and up 
                                                     1       21.3637300       -3.99337000    0.00000000
                                      S - D
                                                     0        2.2181700        3.42572000    0.00000000
                                                     2        6.7158500      218.54146000    0.00000000
                                                     2        5.8085600     -184.10961000    0.00000000
                                      P - D
                                                     0       56.4535300        3.87540000    0.00000000
                                                     2       13.6653400       99.68289000    0.00000000
   23         28           18
                                      D and up 
                                                     1       21.3637300       -3.99337000    0.00000000
                                      S - D
                                                     0        2.2181700        3.42572000    0.00000000
                                                     2        6.7158500      218.54146000    0.00000000
                                                     2        5.8085600     -184.10961000    0.00000000
                                      P - D
                                                     0       56.4535300        3.87540000    0.00000000
                                                     2       13.6653400       99.68289000    0.00000000
   24         28           18
                                      D and up 
                                                     1       21.3637300       -3.99337000    0.00000000
                                      S - D
                                                     0        2.2181700        3.42572000    0.00000000
                                                     2        6.7158500      218.54146000    0.00000000
                                                     2        5.8085600     -184.10961000    0.00000000
                                      P - D
                                                     0       56.4535300        3.87540000    0.00000000
                                                     2       13.6653400       99.68289000    0.00000000
   25         28           18
                                      D and up 
                                                     1       21.3637300       -3.99337000    0.00000000
                                      S - D
                                                     0        2.2181700        3.42572000    0.00000000
                                                     2        6.7158500      218.54146000    0.00000000
                                                     2        5.8085600     -184.10961000    0.00000000
                                      P - D
                                                     0       56.4535300        3.87540000    0.00000000
                                                     2       13.6653400       99.68289000    0.00000000
   26          8            6
                                      P and up 
                                                     1       16.1171800       -0.92550000    0.00000000
                                      S - P
                                                     0        5.0534800        1.96069000    0.00000000
                                                     2       15.9533300       29.13442000    0.00000000
   27          8            6
                                      P and up 
                                                     1       16.1171800       -0.92550000    0.00000000
                                      S - P
                                                     0        5.0534800        1.96069000    0.00000000
                                                     2       15.9533300       29.13442000    0.00000000
   28          8            6
                                      P and up 
                                                     1       16.1171800       -0.92550000    0.00000000
                                      S - P
                                                     0        5.0534800        1.96069000    0.00000000
                                                     2       15.9533300       29.13442000    0.00000000
   29          8            6
                                      P and up 
                                                     1       16.1171800       -0.92550000    0.00000000
                                      S - P
                                                     0        5.0534800        1.96069000    0.00000000
                                                     2       15.9533300       29.13442000    0.00000000
   30          8            6
                                      P and up 
                                                     1       16.1171800       -0.92550000    0.00000000
                                      S - P
                                                     0        5.0534800        1.96069000    0.00000000
                                                     2       15.9533300       29.13442000    0.00000000
   31          8            6
                                      P and up 
                                                     1       16.1171800       -0.92550000    0.00000000
                                      S - P
                                                     0        5.0534800        1.96069000    0.00000000
                                                     2       15.9533300       29.13442000    0.00000000
   32          8            6
                                      P and up 
                                                     1       16.1171800       -0.92550000    0.00000000
                                      S - P
                                                     0        5.0534800        1.96069000    0.00000000
                                                     2       15.9533300       29.13442000    0.00000000
   33          8            6
                                      P and up 
                                                     1       16.1171800       -0.92550000    0.00000000
                                      S - P
                                                     0        5.0534800        1.96069000    0.00000000
                                                     2       15.9533300       29.13442000    0.00000000
   34          8            6
                                      P and up 
                                                     1       16.1171800       -0.92550000    0.00000000
                                      S - P
                                                     0        5.0534800        1.96069000    0.00000000
                                                     2       15.9533300       29.13442000    0.00000000
   35          8            6
                                      P and up 
                                                     1       16.1171800       -0.92550000    0.00000000
                                      S - P
                                                     0        5.0534800        1.96069000    0.00000000
                                                     2       15.9533300       29.13442000    0.00000000
   36          8            6
                                      P and up 
                                                     1       16.1171800       -0.92550000    0.00000000
                                      S - P
                                                     0        5.0534800        1.96069000    0.00000000
                                                     2       15.9533300       29.13442000    0.00000000
   37          8            6
                                      P and up 
                                                     1       16.1171800       -0.92550000    0.00000000
                                      S - P
                                                     0        5.0534800        1.96069000    0.00000000
                                                     2       15.9533300       29.13442000    0.00000000
   38          8            6
                                      P and up 
                                                     1       16.1171800       -0.92550000    0.00000000
                                      S - P
                                                     0        5.0534800        1.96069000    0.00000000
                                                     2       15.9533300       29.13442000    0.00000000
   39          8            6
                                      P and up 
                                                     1       16.1171800       -0.92550000    0.00000000
                                      S - P
                                                     0        5.0534800        1.96069000    0.00000000
                                                     2       15.9533300       29.13442000    0.00000000
   40          8            6
                                      P and up 
                                                     1       16.1171800       -0.92550000    0.00000000
                                      S - P
                                                     0        5.0534800        1.96069000    0.00000000
                                                     2       15.9533300       29.13442000    0.00000000
   41          8            6
                                      P and up 
                                                     1       16.1171800       -0.92550000    0.00000000
                                      S - P
                                                     0        5.0534800        1.96069000    0.00000000
                                                     2       15.9533300       29.13442000    0.00000000
   42          8            6
                                      P and up 
                                                     1       16.1171800       -0.92550000    0.00000000
                                      S - P
                                                     0        5.0534800        1.96069000    0.00000000
                                                     2       15.9533300       29.13442000    0.00000000
   43          8            6
                                      P and up 
                                                     1       16.1171800       -0.92550000    0.00000000
                                      S - P
                                                     0        5.0534800        1.96069000    0.00000000
                                                     2       15.9533300       29.13442000    0.00000000
   44          8            6
                                      P and up 
                                                     1       16.1171800       -0.92550000    0.00000000
                                      S - P
                                                     0        5.0534800        1.96069000    0.00000000
                                                     2       15.9533300       29.13442000    0.00000000
   45          8            6
                                      P and up 
                                                     1       16.1171800       -0.92550000    0.00000000
                                      S - P
                                                     0        5.0534800        1.96069000    0.00000000
                                                     2       15.9533300       29.13442000    0.00000000
   46          8            6
                                      P and up 
                                                     1       16.1171800       -0.92550000    0.00000000
                                      S - P
                                                     0        5.0534800        1.96069000    0.00000000
                                                     2       15.9533300       29.13442000    0.00000000
   47          8            6
                                      P and up 
                                                     1       16.1171800       -0.92550000    0.00000000
                                      S - P
                                                     0        5.0534800        1.96069000    0.00000000
                                                     2       15.9533300       29.13442000    0.00000000
   48          8            6
                                      P and up 
                                                     1       16.1171800       -0.92550000    0.00000000
                                      S - P
                                                     0        5.0534800        1.96069000    0.00000000
                                                     2       15.9533300       29.13442000    0.00000000
   49          8            6
                                      P and up 
                                                     1       16.1171800       -0.92550000    0.00000000
                                      S - P
                                                     0        5.0534800        1.96069000    0.00000000
                                                     2       15.9533300       29.13442000    0.00000000
   50          8            6
                                      P and up 
                                                     1       16.1171800       -0.92550000    0.00000000
                                      S - P
                                                     0        5.0534800        1.96069000    0.00000000
                                                     2       15.9533300       29.13442000    0.00000000
   51          8            6
                                      P and up 
                                                     1       16.1171800       -0.92550000    0.00000000
                                      S - P
                                                     0        5.0534800        1.96069000    0.00000000
                                                     2       15.9533300       29.13442000    0.00000000
   52          8            6
                                      P and up 
                                                     1       16.1171800       -0.92550000    0.00000000
                                      S - P
                                                     0        5.0534800        1.96069000    0.00000000
                                                     2       15.9533300       29.13442000    0.00000000
   53          8            6
                                      P and up 
                                                     1       16.1171800       -0.92550000    0.00000000
                                      S - P
                                                     0        5.0534800        1.96069000    0.00000000
                                                     2       15.9533300       29.13442000    0.00000000
   54          8            6
                                      P and up 
                                                     1       16.1171800       -0.92550000    0.00000000
                                      S - P
                                                     0        5.0534800        1.96069000    0.00000000
                                                     2       15.9533300       29.13442000    0.00000000
   55          8            6
                                      P and up 
                                                     1       16.1171800       -0.92550000    0.00000000
                                      S - P
                                                     0        5.0534800        1.96069000    0.00000000
                                                     2       15.9533300       29.13442000    0.00000000
   56          8            6
                                      P and up 
                                                     1       16.1171800       -0.92550000    0.00000000
                                      S - P
                                                     0        5.0534800        1.96069000    0.00000000
                                                     2       15.9533300       29.13442000    0.00000000
   57          8            6
                                      P and up 
                                                     1       16.1171800       -0.92550000    0.00000000
                                      S - P
                                                     0        5.0534800        1.96069000    0.00000000
                                                     2       15.9533300       29.13442000    0.00000000
   58          8            6
                                      P and up 
                                                     1       16.1171800       -0.92550000    0.00000000
                                      S - P
                                                     0        5.0534800        1.96069000    0.00000000
                                                     2       15.9533300       29.13442000    0.00000000
   59          8            6
                                      P and up 
                                                     1       16.1171800       -0.92550000    0.00000000
                                      S - P
                                                     0        5.0534800        1.96069000    0.00000000
                                                     2       15.9533300       29.13442000    0.00000000
   60          8            6
                                      P and up 
                                                     1       16.1171800       -0.92550000    0.00000000
                                      S - P
                                                     0        5.0534800        1.96069000    0.00000000
                                                     2       15.9533300       29.13442000    0.00000000
   61          8            6
                                      P and up 
                                                     1       16.1171800       -0.92550000    0.00000000
                                      S - P
                                                     0        5.0534800        1.96069000    0.00000000
                                                     2       15.9533300       29.13442000    0.00000000
   62          8            6
                                      P and up 
                                                     1       16.1171800       -0.92550000    0.00000000
                                      S - P
                                                     0        5.0534800        1.96069000    0.00000000
                                                     2       15.9533300       29.13442000    0.00000000
   63          8            6
                                      P and up 
                                                     1       16.1171800       -0.92550000    0.00000000
                                      S - P
                                                     0        5.0534800        1.96069000    0.00000000
                                                     2       15.9533300       29.13442000    0.00000000
 ======================================================================================================
 Ernie: Thresh=  0.10000D-02 Tol=  0.10000D-05 Strict=F.
 There are  1154 symmetry adapted cartesian basis functions of A   symmetry.
 There are  1079 symmetry adapted basis functions of A   symmetry.
  1079 basis functions,  2308 primitive gaussians,  1154 cartesian basis functions
   320 alpha electrons      320 beta electrons
       nuclear repulsion energy     21691.2859354048 Hartrees.
 IExCor= 1009 DFT=T Ex+Corr=PBE1PBE ExCW=0 ScaHFX=  0.250000
 ScaDFX=  0.750000  0.750000  1.000000  1.000000 ScalE2=  1.000000  1.000000
 IRadAn=      5 IRanWt=     -1 IRanGd=            0 ICorTp=0 IEmpDi=  4
 NAtoms=   63 NActive=   63 NUniq=   63 SFac= 1.00D+00 NAtFMM=   60 NAOKFM=T Big=T
 Integral buffers will be    131072 words long.
 Raffenetti 2 integral format.
 Two-electron integral symmetry is turned on.
 Leave Link  301 at Mon Oct 20 08:34:24 2025, MaxMem=  4294967296 cpu:               0.3 elap:               0.0
 (Enter /opt/modules/software/gaussian/G16-C01/l302.exe)
 NPDir=0 NMtPBC=     1 NCelOv=     1 NCel=       1 NClECP=     1 NCelD=      1
         NCelK=      1 NCelE2=     1 NClLst=     1 CellRange=     0.0.
 One-electron integrals computed using PRISM.
 One-electron integral symmetry used in STVInt
   1 Symmetry operations used in ECPInt.
 ECPInt:  NShTT=   31626 NPrTT=  126692 LenC2=   28312 LenP2D=   73550.
 LDataN:  DoStor=T MaxTD1= 4 Len=   56
 NBasis=  1079 RedAO= T EigKep=  4.73D-05  NBF=  1079
 NBsUse=  1079 1.00D-06 EigRej= -1.00D+00 NBFU=  1079
 Precomputing XC quadrature grid using
 IXCGrd= 4 IRadAn=           5 IRanWt=          -1 IRanGd=           0 AccXCQ= 0.00D+00.
 Generated NRdTot=       0 NPtTot=           0 NUsed=           0 NTot=          32
 NSgBfM=  1154  1154  1154  1154  1154 MxSgAt=    63 MxSgA2=    63.
 Leave Link  302 at Mon Oct 20 08:34:28 2025, MaxMem=  4294967296 cpu:              30.3 elap:               3.8
 (Enter /opt/modules/software/gaussian/G16-C01/l303.exe)
 DipDrv:  MaxL=1.
 Leave Link  303 at Mon Oct 20 08:34:28 2025, MaxMem=  4294967296 cpu:               0.7 elap:               0.1
 (Enter /opt/modules/software/gaussian/G16-C01/l401.exe)
 SCF restart from the checkpoint file:  "charges-hirshfeld.chk"
 B after Tr=     0.000000    0.000000    0.000000
         Rot=    1.000000    0.000000    0.000000    0.000000 Ang=   0.00 deg.
 Guess basis will be translated and rotated to current coordinates.
 JPrj=0 DoOrth=F DoCkMO=F.
 Leave Link  401 at Mon Oct 20 08:34:28 2025, MaxMem=  4294967296 cpu:               0.9 elap:               0.1
 (Enter /opt/modules/software/gaussian/G16-C01/l508.exe)
 Integral symmetry usage will be decided dynamically.
 Tight linear equation convergence will be used.
 RPBE1PBE wavefunction.
 Quadratic Convergence SCF Method.
 Line search only if initial step raises energy.
 Fock matrices will be formed incrementally for  20 cycles.
 FoFJK:  IHMeth= 1 ICntrl=       0 DoSepK=F KAlg= 0 I1Cent=           0 FoldK=F
 IRaf= 990000000 NMat=       1 IRICut=       1 DoRegI=T DoRafI=F ISym2E= 1 IDoP0=0 IntGTp=1.
 FoFCou: FMM=T IPFlag=           0 FMFlag=      100000 FMFlg1=        2001
         NFxFlg=           0 DoJE=F BraDBF=F KetDBF=F FulRan=T
         wScrn=  0.000000 ICntrl=         0 IOpCl=  0 I1Cent=           0 NGrid=           0
         NMat0=    1 NMatS0=      1 NMatT0=    0 NMatD0=    1 NMtDS0=    0 NMtDT0=    0
 Petite list used in FoFCou.
 FMM levels:  10  Number of levels for PrismC:   9
 Iteration   1 EE= -3963.29796433403                                    Grad=2.763D-09 Max rot=    0.0000 deg.
 Rotation gradient small -- convergence achieved.
 SCF Done:  E(RPBE1PBE) =  -3963.29796433     a.u. after    1 cycles
            Convg  =    0.2763D-08                     1 Fock formations.
              S**2 =  0.0000                  -V/T =  2.6336
 Leave Link  508 at Mon Oct 20 08:36:56 2025, MaxMem=  4294967296 cpu:            1176.5 elap:             148.0
 (Enter /opt/modules/software/gaussian/G16-C01/l601.exe)
 Copying SCF densities to generalized density rwf, IOpCl= 0 IROHF=0.

 **********************************************************************

            Population analysis using the SCF Density.

 **********************************************************************

 Orbital symmetries:
       Occupied  (A) (A) (A) (A) (A) (A) (A) (A) (A) (A) (A) (A)
                 (A) (A) (A) (A) (A) (A) (A) (A) (A) (A) (A) (A)
                 (A) (A) (A) (A) (A) (A) (A) (A) (A) (A) (A) (A)
                 (A) (A) (A) (A) (A) (A) (A) (A) (A) (A) (A) (A)
                 (A) (A) (A) (A) (A) (A) (A) (A) (A) (A) (A) (A)
                 (A) (A) (A) (A) (A) (A) (A) (A) (A) (A) (A) (A)
                 (A) (A) (A) (A) (A) (A) (A) (A) (A) (A) (A) (A)
                 (A) (A) (A) (A) (A) (A) (A) (A) (A) (A) (A) (A)
                 (A) (A) (A) (A) (A) (A) (A) (A) (A) (A) (A) (A)
                 (A) (A) (A) (A) (A) (A) (A) (A) (A) (A) (A) (A)
                 (A) (A) (A) (A) (A) (A) (A) (A) (A) (A) (A) (A)
                 (A) (A) (A) (A) (A) (A) (A) (A) (A) (A) (A) (A)
                 (A) (A) (A) (A) (A) (A) (A) (A) (A) (A) (A) (A)
                 (A) (A) (A) (A) (A) (A) (A) (A) (A) (A) (A) (A)
                 (A) (A) (A) (A) (A) (A) (A) (A) (A) (A) (A) (A)
                 (A) (A) (A) (A) (A) (A) (A) (A) (A) (A) (A) (A)
                 (A) (A) (A) (A) (A) (A) (A) (A) (A) (A) (A) (A)
                 (A) (A) (A) (A) (A) (A) (A) (A) (A) (A) (A) (A)
                 (A) (A) (A) (A) (A) (A) (A) (A) (A) (A) (A) (A)
                 (A) (A) (A) (A) (A) (A) (A) (A) (A) (A) (A) (A)
                 (A) (A) (A) (A) (A) (A) (A) (A) (A) (A) (A) (A)
                 (A) (A) (A) (A) (A) (A) (A) (A) (A) (A) (A) (A)
                 (A) (A) (A) (A) (A) (A) (A) (A) (A) (A) (A) (A)
                 (A) (A) (A) (A) (A) (A) (A) (A) (A) (A) (A) (A)
                 (A) (A) (A) (A) (A) (A) (A) (A) (A) (A) (A) (A)
                 (A) (A) (A) (A) (A) (A) (A) (A) (A) (A) (A) (A)
                 (A) (A) (A) (A) (A) (A) (A) (A)
       Virtual   (A) (A) (A) (A) (A) (A) (A) (A) (A) (A) (A) (A)
                 (A) (A) (A) (A) (A) (A) (A) (A) (A) (A) (A) (A)
                 (A) (A) (A) (A) (A) (A) (A) (A) (A) (A) (A) (A)
                 (A) (A) (A) (A) (A) (A) (A) (A) (A) (A) (A) (A)
                 (A) (A) (A) (A) (A) (A) (A) (A) (A) (A) (A) (A)
                 (A) (A) (A) (A) (A) (A) (A) (A) (A) (A) (A) (A)
                 (A) (A) (A) (A) (A) (A) (A) (A) (A) (A) (A) (A)
                 (A) (A) (A) (A) (A) (A) (A) (A) (A) (A) (A) (A)
                 (A) (A) (A) (A) (A) (A) (A) (A) (A) (A) (A) (A)
                 (A) (A) (A) (A) (A) (A) (A) (A) (A) (A) (A) (A)
                 (A) (A) (A) (A) (A) (A) (A) (A) (A) (A) (A) (A)
                 (A) (A) (A) (A) (A) (A) (A) (A) (A) (A) (A) (A)
                 (A) (A) (A) (A) (A) (A) (A) (A) (A) (A) (A) (A)
                 (A) (A) (A) (A) (A) (A) (A) (A) (A) (A) (A) (A)
                 (A) (A) (A) (A) (A) (A) (A) (A) (A) (A) (A) (A)
                 (A) (A) (A) (A) (A) (A) (A) (A) (A) (A) (A) (A)
                 (A) (A) (A) (A) (A) (A) (A) (A) (A) (A) (A) (A)
                 (A) (A) (A) (A) (A) (A) (A) (A) (A) (A) (A) (A)
                 (A) (A) (A) (A) (A) (A) (A) (A) (A) (A) (A) (A)
                 (A) (A) (A) (A) (A) (A) (A) (A) (A) (A) (A) (A)
                 (A) (A) (A) (A) (A) (A) (A) (A) (A) (A) (A) (A)
                 (A) (A) (A) (A) (A) (A) (A) (A) (A) (A) (A) (A)
                 (A) (A) (A) (A) (A) (A) (A) (A) (A) (A) (A) (A)
                 (A) (A) (A) (A) (A) (A) (A) (A) (A) (A) (A) (A)
                 (A) (A) (A) (A) (A) (A) (A) (A) (A) (A) (A) (A)
                 (A) (A) (A) (A) (A) (A) (A) (A) (A) (A) (A) (A)
                 (A) (A) (A) (A) (A) (A) (A) (A) (A) (A) (A) (A)
                 (A) (A) (A) (A) (A) (A) (A) (A) (A) (A) (A) (A)
                 (A) (A) (A) (A) (A) (A) (A) (A) (A) (A) (A) (A)
                 (A) (A) (A) (A) (A) (A) (A) (A) (A) (A) (A) (A)
                 (A) (A) (A) (A) (A) (A) (A) (A) (A) (A) (A) (A)
                 (A) (A) (A) (A) (A) (A) (A) (A) (A) (A) (A) (A)
                 (A) (A) (A) (A) (A) (A) (A) (A) (A) (A) (A) (A)
                 (A) (A) (A) (A) (A) (A) (A) (A) (A) (A) (A) (A)
                 (A) (A) (A) (A) (A) (A) (A) (A) (A) (A) (A) (A)
                 (A) (A) (A) (A) (A) (A) (A) (A) (A) (A) (A) (A)
                 (A) (A) (A) (A) (A) (A) (A) (A) (A) (A) (A) (A)
                 (A) (A) (A) (A) (A) (A) (A) (A) (A) (A) (A) (A)
                 (A) (A) (A) (A) (A) (A) (A) (A) (A) (A) (A) (A)
                 (A) (A) (A) (A) (A) (A) (A) (A) (A) (A) (A) (A)
                 (A) (A) (A) (A) (A) (A) (A) (A) (A) (A) (A) (A)
                 (A) (A) (A) (A) (A) (A) (A) (A) (A) (A) (A) (A)
                 (A) (A) (A) (A) (A) (A) (A) (A) (A) (A) (A) (A)
                 (A) (A) (A) (A) (A) (A) (A) (A) (A) (A) (A) (A)
                 (A) (A) (A) (A) (A) (A) (A) (A) (A) (A) (A) (A)
                 (A) (A) (A) (A) (A) (A) (A) (A) (A) (A) (A) (A)
                 (A) (A) (A) (A) (A) (A) (A) (A) (A) (A) (A) (A)
                 (A) (A) (A) (A) (A) (A) (A) (A) (A) (A) (A) (A)
                 (A) (A) (A) (A) (A) (A) (A) (A) (A) (A) (A) (A)
                 (A) (A) (A) (A) (A) (A) (A) (A) (A) (A) (A) (A)
                 (A) (A) (A) (A) (A) (A) (A) (A) (A) (A) (A) (A)
                 (A) (A) (A) (A) (A) (A) (A) (A) (A) (A) (A) (A)
                 (A) (A) (A) (A) (A) (A) (A) (A) (A) (A) (A) (A)
                 (A) (A) (A) (A) (A) (A) (A) (A) (A) (A) (A) (A)
                 (A) (A) (A) (A) (A) (A) (A) (A) (A) (A) (A) (A)
                 (A) (A) (A) (A) (A) (A) (A) (A) (A) (A) (A) (A)
                 (A) (A) (A) (A) (A) (A) (A) (A) (A) (A) (A) (A)
                 (A) (A) (A) (A) (A) (A) (A) (A) (A) (A) (A) (A)
                 (A) (A) (A) (A) (A) (A) (A) (A) (A) (A) (A) (A)
                 (A) (A) (A) (A) (A) (A) (A) (A) (A) (A) (A) (A)
                 (A) (A) (A) (A) (A) (A) (A) (A) (A) (A) (A) (A)
                 (A) (A) (A) (A) (A) (A) (A) (A) (A) (A) (A) (A)
                 (A) (A) (A) (A) (A) (A) (A) (A) (A) (A) (A) (A)
                 (A) (A) (A)
 The electronic state is 1-A.
 Alpha  occ. eigenvalues --   -4.25454  -4.25440  -4.25415  -4.25411  -4.25382
 Alpha  occ. eigenvalues --   -4.25355  -3.64707  -3.64679  -3.64675  -3.64659
 Alpha  occ. eigenvalues --   -3.64655  -3.64586  -3.59265  -3.59255  -3.59249
 Alpha  occ. eigenvalues --   -3.59248  -3.59244  -3.59243  -3.59242  -3.59231
 Alpha  occ. eigenvalues --   -3.59229  -3.59216  -3.59214  -3.59163  -3.58682
 Alpha  occ. eigenvalues --   -2.74126  -2.74106  -2.74089  -2.74048  -2.74046
 Alpha  occ. eigenvalues --   -2.73990  -2.73507  -2.73464  -2.73425  -2.73420
 Alpha  occ. eigenvalues --   -2.73416  -2.73412  -2.71128  -2.71105  -2.71058
 Alpha  occ. eigenvalues --   -2.71045  -2.71022  -2.71001  -2.34349  -2.34316
 Alpha  occ. eigenvalues --   -2.34293  -2.34275  -2.34273  -2.34204  -2.33230
 Alpha  occ. eigenvalues --   -2.33211  -2.33202  -2.33183  -2.33181  -2.33131
 Alpha  occ. eigenvalues --   -2.30769  -2.30733  -2.30680  -2.30655  -2.30651
 Alpha  occ. eigenvalues --   -2.30582  -2.28377  -2.28367  -2.28365  -2.28361
 Alpha  occ. eigenvalues --   -2.28347  -2.28322  -2.28319  -2.28310  -2.28308
 Alpha  occ. eigenvalues --   -2.28297  -2.28288  -2.28238  -2.27704  -2.27693
 Alpha  occ. eigenvalues --   -2.27688  -2.27685  -2.27679  -2.27669  -2.27664
 Alpha  occ. eigenvalues --   -2.27661  -2.27648  -2.27641  -2.27634  -2.27593
 Alpha  occ. eigenvalues --   -2.27345  -2.27322  -2.27309  -2.27308  -2.27306
 Alpha  occ. eigenvalues --   -2.27305  -2.27296  -2.27291  -2.27287  -2.27286
 Alpha  occ. eigenvalues --   -2.27276  -2.27274  -2.27230  -2.27001  -2.26997
 Alpha  occ. eigenvalues --   -0.99540  -0.98100  -0.97309  -0.97287  -0.96824
 Alpha  occ. eigenvalues --   -0.96807  -0.96414  -0.96375  -0.96300  -0.96253
 Alpha  occ. eigenvalues --   -0.96159  -0.96133  -0.91742  -0.91720  -0.91700
 Alpha  occ. eigenvalues --   -0.91620  -0.91610  -0.91463  -0.91346  -0.91179
 Alpha  occ. eigenvalues --   -0.91159  -0.91030  -0.91027  -0.91016  -0.90967
 Alpha  occ. eigenvalues --   -0.90910  -0.90171  -0.90153  -0.90121  -0.90100
 Alpha  occ. eigenvalues --   -0.89966  -0.89914  -0.89329  -0.89314  -0.89300
 Alpha  occ. eigenvalues --   -0.89276  -0.89146  -0.89120  -0.49447  -0.47879
 Alpha  occ. eigenvalues --   -0.46730  -0.46720  -0.45863  -0.45832  -0.45681
 Alpha  occ. eigenvalues --   -0.45413  -0.45362  -0.45308  -0.45239  -0.45228
 Alpha  occ. eigenvalues --   -0.44913  -0.44326  -0.44143  -0.44132  -0.44110
 Alpha  occ. eigenvalues --   -0.43320  -0.43308  -0.42399  -0.42336  -0.42325
 Alpha  occ. eigenvalues --   -0.42213  -0.42209  -0.41893  -0.41869  -0.41701
 Alpha  occ. eigenvalues --   -0.41584  -0.40998  -0.40991  -0.40830  -0.40828
 Alpha  occ. eigenvalues --   -0.40621  -0.40600  -0.40586  -0.40353  -0.40291
 Alpha  occ. eigenvalues --   -0.40182  -0.40169  -0.39840  -0.39819  -0.39404
 Alpha  occ. eigenvalues --   -0.39398  -0.39385  -0.39256  -0.39196  -0.39126
 Alpha  occ. eigenvalues --   -0.39119  -0.38376  -0.38168  -0.38159  -0.38068
 Alpha  occ. eigenvalues --   -0.38053  -0.37511  -0.37445  -0.37435  -0.37316
 Alpha  occ. eigenvalues --   -0.37207  -0.37200  -0.37124  -0.37119  -0.36987
 Alpha  occ. eigenvalues --   -0.36639  -0.36525  -0.36401  -0.36395  -0.36238
 Alpha  occ. eigenvalues --   -0.36231  -0.36128  -0.36062  -0.35573  -0.35569
 Alpha  occ. eigenvalues --   -0.35149  -0.35133  -0.34998  -0.34992  -0.34547
 Alpha  occ. eigenvalues --   -0.34435  -0.34431  -0.34306  -0.34300  -0.34236
 Alpha  occ. eigenvalues --   -0.33937  -0.33778  -0.33772  -0.33735  -0.33499
 Alpha  occ. eigenvalues --   -0.33344  -0.33336  -0.33316  -0.33309  -0.32889
 Alpha  occ. eigenvalues --   -0.32845  -0.32775  -0.32764  -0.32658  -0.32620
 Alpha  occ. eigenvalues --   -0.32606  -0.32453  -0.32403  -0.32396  -0.32115
 Alpha  occ. eigenvalues --   -0.32056  -0.32028  -0.32010  -0.31808  -0.31615
 Alpha  occ. eigenvalues --   -0.31612  -0.31371  -0.31365  -0.31281  -0.31274
 Alpha  occ. eigenvalues --   -0.31157  -0.31151  -0.31047  -0.31014  -0.31009
 Alpha  occ. eigenvalues --   -0.30912  -0.30741  -0.30720  -0.30705  -0.30698
 Alpha  occ. eigenvalues --   -0.30660  -0.30641  -0.30170  -0.30163  -0.29915
 Alpha  occ. eigenvalues --   -0.29840  -0.29767  -0.29672  -0.29567  -0.29536
 Alpha  occ. eigenvalues --   -0.29525  -0.29447  -0.29370  -0.29244  -0.29235
 Alpha  occ. eigenvalues --   -0.29194  -0.29184  -0.28981  -0.28968  -0.28729
 Alpha  occ. eigenvalues --   -0.28727  -0.28693  -0.28686  -0.28669  -0.28661
 Alpha  occ. eigenvalues --   -0.28453  -0.28331  -0.28151  -0.28149  -0.28094
 Alpha  occ. eigenvalues --   -0.28082  -0.28026  -0.28025  -0.27971  -0.27950
 Alpha  occ. eigenvalues --   -0.27603  -0.27405  -0.27390  -0.27279  -0.27184
 Alpha  occ. eigenvalues --   -0.27101  -0.27083  -0.27058  -0.26945  -0.26923
 Alpha  occ. eigenvalues --   -0.26654  -0.26602  -0.26596  -0.26245  -0.26076
 Alpha  occ. eigenvalues --   -0.25913  -0.25906  -0.25596  -0.25583  -0.25528
 Alpha  occ. eigenvalues --   -0.23926  -0.23918  -0.23788  -0.23772  -0.23061
 Alpha virt. eigenvalues --   -0.20806  -0.19083  -0.19076  -0.18938  -0.18692
 Alpha virt. eigenvalues --   -0.18518  -0.18503  -0.18439  -0.18432  -0.18369
 Alpha virt. eigenvalues --   -0.18350  -0.18259  -0.17833  -0.17476  -0.17460
 Alpha virt. eigenvalues --   -0.17305  -0.17280  -0.16973  -0.16792  -0.13375
 Alpha virt. eigenvalues --   -0.12935  -0.12751  -0.12740  -0.12545  -0.12534
 Alpha virt. eigenvalues --   -0.11243  -0.11241  -0.10842  -0.10589  -0.10509
 Alpha virt. eigenvalues --   -0.10498  -0.10309  -0.10152  -0.09884  -0.09871
 Alpha virt. eigenvalues --   -0.09770  -0.09751  -0.09473  -0.09453  -0.09385
 Alpha virt. eigenvalues --   -0.09346  -0.09199  -0.09181  -0.09001  -0.08992
 Alpha virt. eigenvalues --   -0.08984  -0.08922  -0.08914  -0.08890  -0.08761
 Alpha virt. eigenvalues --   -0.08728  -0.08710  -0.08701  -0.08691  -0.08660
 Alpha virt. eigenvalues --   -0.07890  -0.07874  -0.07861  -0.07822  -0.07640
 Alpha virt. eigenvalues --   -0.07602  -0.04578  -0.04561  -0.04098  -0.04089
 Alpha virt. eigenvalues --   -0.04045  -0.03984  -0.03962  -0.03402   0.02392
 Alpha virt. eigenvalues --    0.03470   0.03480   0.03672   0.03807   0.04251
 Alpha virt. eigenvalues --    0.04265   0.04503   0.04510   0.04962   0.05394
 Alpha virt. eigenvalues --    0.05405   0.05528   0.06536   0.06541   0.06600
 Alpha virt. eigenvalues --    0.06815   0.06817   0.07577   0.08112   0.08115
 Alpha virt. eigenvalues --    0.08433   0.08443   0.08529   0.09023   0.09023
 Alpha virt. eigenvalues --    0.09355   0.09597   0.09668   0.09679   0.10347
 Alpha virt. eigenvalues --    0.10358   0.10567   0.10571   0.10925   0.11012
 Alpha virt. eigenvalues --    0.12021   0.12030   0.12788   0.13200   0.13390
 Alpha virt. eigenvalues --    0.13675   0.13684   0.14026   0.14459   0.14479
 Alpha virt. eigenvalues --    0.14740   0.15009   0.15039   0.15045   0.16559
 Alpha virt. eigenvalues --    0.16813   0.16817   0.17221   0.17228   0.17316
 Alpha virt. eigenvalues --    0.18214   0.18260   0.18767   0.18777   0.18816
 Alpha virt. eigenvalues --    0.19205   0.19211   0.19733   0.19734   0.19765
 Alpha virt. eigenvalues --    0.19771   0.20452   0.20483   0.20493   0.21372
 Alpha virt. eigenvalues --    0.21385   0.21823   0.22005   0.22047   0.22406
 Alpha virt. eigenvalues --    0.22414   0.22613   0.22628   0.23139   0.23214
 Alpha virt. eigenvalues --    0.23231   0.24000   0.24095   0.24121   0.24180
 Alpha virt. eigenvalues --    0.24813   0.24998   0.25000   0.25333   0.25343
 Alpha virt. eigenvalues --    0.25377   0.25387   0.25825   0.25893   0.25901
 Alpha virt. eigenvalues --    0.27084   0.27314   0.27325   0.28103   0.28111
 Alpha virt. eigenvalues --    0.28202   0.28508   0.28837   0.29214   0.29575
 Alpha virt. eigenvalues --    0.29582   0.29857   0.29870   0.29880   0.30312
 Alpha virt. eigenvalues --    0.30314   0.31127   0.31624   0.31686   0.31697
 Alpha virt. eigenvalues --    0.32141   0.32327   0.32346   0.32556   0.32641
 Alpha virt. eigenvalues --    0.32660   0.32693   0.33121   0.33251   0.33258
 Alpha virt. eigenvalues --    0.33980   0.34112   0.34116   0.34126   0.34204
 Alpha virt. eigenvalues --    0.34230   0.34369   0.34387   0.34971   0.34986
 Alpha virt. eigenvalues --    0.35010   0.35036   0.35608   0.36808   0.37042
 Alpha virt. eigenvalues --    0.37185   0.37280   0.37289   0.37349   0.37545
 Alpha virt. eigenvalues --    0.37567   0.37827   0.37833   0.38041   0.38051
 Alpha virt. eigenvalues --    0.38249   0.38324   0.38927   0.38943   0.39318
 Alpha virt. eigenvalues --    0.39329   0.39553   0.39568   0.40480   0.40490
 Alpha virt. eigenvalues --    0.40732   0.40840   0.41211   0.41219   0.41237
 Alpha virt. eigenvalues --    0.41525   0.41548   0.41772   0.42002   0.42012
 Alpha virt. eigenvalues --    0.42474   0.42484   0.43432   0.43587   0.43657
 Alpha virt. eigenvalues --    0.43719   0.43726   0.44571   0.44580   0.44660
 Alpha virt. eigenvalues --    0.45379   0.45410   0.45572   0.46310   0.46328
 Alpha virt. eigenvalues --    0.46365   0.47027   0.47546   0.47637   0.47659
[...]
 Alpha virt. eigenvalues --   38.89158  43.13933  43.16534  43.25471  43.72189
 Alpha virt. eigenvalues --   46.53625  46.55932  52.46621  53.67231  53.69590
 Alpha virt. eigenvalues --   55.24553  55.24846  69.85429  72.18073
          Condensed to atoms (all electrons):
 Mulliken charges:
               1
     1  Fe   2.528141
     2  Fe   0.477036
     3  Fe   0.475679
     4  Fe   0.359199
     5  Fe   0.359457
     6  Fe   0.477492
     7  Fe   0.477107
     8  Fe   0.476236
     9  Fe   0.354139
    10  Fe   0.476703
    11  Fe   0.473287
    12  Fe   0.363095
    13  Fe   0.476594
    14  Fe   0.363557
    15  Fe   0.476082
    16  Fe   0.477846
    17  Fe   0.476766
    18  Fe   0.476755
    19  Fe   0.355067
    20  Ni   0.619064
    21  Ni   0.619566
    22  Ni   0.620692
    23  Ni   0.616792
    24  Ni   0.618056
    25  Ni   0.617989
    26  O   -0.145855
    27  O   -0.635093
    28  O   -0.634450
    29  O   -0.637788
    30  O   -0.563379
    31  O   -0.354983
    32  O   -0.353606
    33  O   -0.200938
    34  O   -0.199360
    35  O   -0.354408
    36  O   -0.561679
    37  O   -0.352867
    38  O   -0.198208
    39  O   -0.200816
    40  O   -0.353023
    41  O   -0.355184
    42  O   -0.561177
    43  O   -0.198187
    44  O   -0.199954
    45  O   -0.635662
    46  O   -0.634754
    47  O   -0.633879
    48  O   -0.145978
    49  O   -0.200341
    50  O   -0.196900
    51  O   -0.355144
    52  O   -0.353436
    53  O   -0.560778
    54  O   -0.198981
    55  O   -0.200074
    56  O   -0.354001
    57  O   -0.560746
    58  O   -0.354310
    59  O   -0.197965
    60  O   -0.200270
    61  O   -0.560559
    62  O   -0.353470
    63  O   -0.354192
 Sum of Mulliken charges =   0.00000
 Mulliken charges with hydrogens summed into heavy atoms:
               1
     1  Fe   2.528141
     2  Fe   0.477036
     3  Fe   0.475679
     4  Fe   0.359199
     5  Fe   0.359457
     6  Fe   0.477492
     7  Fe   0.477107
     8  Fe   0.476236
     9  Fe   0.354139
    10  Fe   0.476703
    11  Fe   0.473287
    12  Fe   0.363095
    13  Fe   0.476594
    14  Fe   0.363557
    15  Fe   0.476082
    16  Fe   0.477846
    17  Fe   0.476766
    18  Fe   0.476755
    19  Fe   0.355067
    20  Ni   0.619064
    21  Ni   0.619566
    22  Ni   0.620692
    23  Ni   0.616792
    24  Ni   0.618056
    25  Ni   0.617989
    26  O   -0.145855
    27  O   -0.635093
    28  O   -0.634450
    29  O   -0.637788
    30  O   -0.563379
    31  O   -0.354983
    32  O   -0.353606
    33  O   -0.200938
    34  O   -0.199360
    35  O   -0.354408
    36  O   -0.561679
    37  O   -0.352867
    38  O   -0.198208
    39  O   -0.200816
    40  O   -0.353023
    41  O   -0.355184
    42  O   -0.561177
    43  O   -0.198187
    44  O   -0.199954
    45  O   -0.635662
    46  O   -0.634754
    47  O   -0.633879
    48  O   -0.145978
    49  O   -0.200341
    50  O   -0.196900
    51  O   -0.355144
    52  O   -0.353436
    53  O   -0.560778
    54  O   -0.198981
    55  O   -0.200074
    56  O   -0.354001
    57  O   -0.560746
    58  O   -0.354310
    59  O   -0.197965
    60  O   -0.200270
    61  O   -0.560559
    62  O   -0.353470
    63  O   -0.354192
 Electronic spatial extent (au):  <R**2>=          42002.9095
 Charge=              0.0000 electrons
 Dipole moment (field-independent basis, Debye):
    X=              0.0164    Y=              0.0408    Z=              0.0312  Tot=              0.0539
 Quadrupole moment (field-independent basis, Debye-Ang):
   XX=           -431.5504   YY=           -431.7289   ZZ=           -611.5255
   XY=              0.0545   XZ=             -0.0083   YZ=             -0.2571
 Traceless Quadrupole moment (field-independent basis, Debye-Ang):
   XX=             60.0512   YY=             59.8727   ZZ=           -119.9239
   XY=              0.0545   XZ=             -0.0083   YZ=             -0.2571
 Octapole moment (field-independent basis, Debye-Ang**2):
  XXX=              1.0068  YYY=              1.1279  ZZZ=              0.4540  XYY=             -0.1414
  XXY=              1.3273  XXZ=              0.3324  XZZ=             -0.2999  YZZ=              0.6724
  YYZ=             -0.0435  XYZ=             -0.2769
 Hexadecapole moment (field-independent basis, Debye-Ang**3):
 XXXX=         -18174.6301 YYYY=         -18174.0215 ZZZZ=         -19235.9793 XXXY=              4.0738
 XXXZ=            135.9378 YYYX=             -1.5278 YYYZ=          -1638.3057 ZZZX=             -0.9879
 ZZZY=             -2.2221 XXYY=          -6064.1094 XXZZ=          -5204.4880 YYZZ=          -5207.2316
 XXYZ=           1627.9052 YYXZ=           -132.4928 ZZXY=             -0.8811
 N-N= 2.169128593540D+04 E-N=-5.273615302298D+04  KE= 2.426133407769D+03
 StAtR1:  DoIntr=F IAtCor=3 NETot=     640 Failed=F Sum=  3.26D+02 SumC=  0.00D+00
 There are a total of     1655856 grid points.
 ElSum from          density=      640.0002552005
 ElSum from atomic densities=      966.0004857286

 Hirshfeld populations at iteration   1 (CX, CA, CB, DipXYZ):
               1          2          3          4          5          6
     1  Fe   0.000000   7.916371   7.916371  -0.000059   0.000203   0.000771
     2  Fe   0.000001   7.801729   7.801729  -0.759704   0.316532   0.277604
     3  Fe   0.000001   7.801678   7.801678  -0.151412  -0.809540   0.277127
     4  Fe   0.000000   7.855513   7.855513  -0.026546  -0.014277  -0.061602
     5  Fe   0.000000   7.855502   7.855502   0.025508   0.011708   0.062254
     6  Fe   0.000001   7.801397   7.801397   0.149386   0.810647  -0.277131
     7  Fe   0.000001   7.801544   7.801544   0.760118  -0.315099  -0.277789
     8  Fe   0.000001   7.801539   7.801539  -0.626145   0.534273   0.277871
     9  Fe   0.000000   7.855557   7.855557  -0.000108   0.028340  -0.062595
    10  Fe   0.000001   7.801977   7.801977   0.654524   0.498655   0.276825
    11  Fe   0.000001   7.802680   7.802680  -0.652654  -0.498625  -0.275728
    12  Fe   0.000000   7.855347   7.855347  -0.001107  -0.029914   0.061811
    13  Fe   0.000001   7.802244   7.802244   0.624622  -0.533568  -0.278029
    14  Fe   0.000000   7.855397   7.855397   0.025476  -0.015530  -0.062491
    15  Fe   0.000001   7.801868   7.801868   0.108878  -0.816567   0.276049
    16  Fe   0.000001   7.801134   7.801134   0.777344   0.276243   0.277873
    17  Fe   0.000001   7.801228   7.801228  -0.777939  -0.274464  -0.277963
    18  Fe   0.000001   7.801506   7.801506  -0.105671   0.817548  -0.277109
    19  Fe   0.000000   7.856197   7.856197  -0.025278   0.015683   0.061452
    20  Ni   0.000000   8.775005   8.775005   0.007140   0.007105  -0.122060
    21  Ni   0.000000   8.775142   8.775142   0.000801  -0.010257  -0.119804
    22  Ni   0.000000   8.774904   8.774904  -0.009071   0.009170  -0.119350
    23  Ni   0.000000   8.775288   8.775288   0.011128  -0.002368   0.119239
    24  Ni   0.000000   8.774990   8.774990  -0.003420   0.008278   0.120408
    25  Ni   0.000000   8.774951   8.774951  -0.011833  -0.003086   0.118801
    26  O    0.000000   3.099237   3.099237   0.000131   0.000079  -0.057767
    27  O    0.000000   3.131156   3.131156   0.016976   0.009025  -0.005718
    28  O    0.000000   3.131392   3.131392  -0.000395  -0.019494  -0.006002
    29  O    0.000000   3.130761   3.130761  -0.016201   0.009739  -0.005015
    30  O    0.000000   3.110499   3.110499  -0.004622  -0.002698  -0.002589
    31  O    0.000001   3.139417   3.139417   0.013142  -0.102089   0.031216
    32  O    0.000001   3.139083   3.139083  -0.078119   0.067031   0.030467
    33  O    0.000001   3.113768   3.113768   0.039924   0.013652   0.087258
    34  O    0.000001   3.113323   3.113323   0.033870   0.026237   0.086891
    35  O    0.000001   3.139815   3.139815   0.096827   0.034749   0.031607
    36  O    0.000000   3.110857   3.110857   0.000296   0.004412  -0.002211
    37  O    0.000001   3.139411   3.139411  -0.094951   0.039719   0.031301
    38  O    0.000001   3.112647   3.112647   0.005720  -0.041739   0.087247
    39  O    0.000001   3.113991   3.113991  -0.008382  -0.042003   0.086946
    40  O    0.000001   3.138783   3.138783   0.081532   0.062651   0.030116
    41  O    0.000001   3.139721   3.139721  -0.018401  -0.101233   0.031495
    42  O    0.000000   3.110485   3.110485   0.003601  -0.002626  -0.002235
    43  O    0.000001   3.112951   3.112951  -0.031301   0.027411   0.087659
    44  O    0.000001   3.113190   3.113190  -0.038803   0.015935   0.087419
    45  O    0.000000   3.131205   3.131205   0.016487  -0.010096   0.005521
    46  O    0.000000   3.131096   3.131096   0.000821   0.018926   0.005539
    47  O    0.000000   3.131369   3.131369  -0.017094  -0.008954   0.006020
    48  O    0.000000   3.099344   3.099344   0.000293  -0.000120   0.057987
    49  O    0.000001   3.113435   3.113435  -0.033550  -0.025470  -0.087164
    50  O    0.000001   3.112442   3.112442  -0.039609  -0.013623  -0.087826
    51  O    0.000001   3.140151   3.140151   0.078894  -0.066529  -0.032239
    52  O    0.000001   3.138875   3.138875  -0.012683   0.101983  -0.031044
    53  O    0.000000   3.110793   3.110793   0.003375   0.002002   0.001996
    54  O    0.000001   3.112931   3.112931   0.007523   0.041540  -0.087154
    55  O    0.000001   3.113348   3.113348  -0.005631   0.042239  -0.087153
    56  O    0.000001   3.138726   3.138726   0.094736  -0.040093  -0.031108
    57  O    0.000000   3.110542   3.110542  -0.000062  -0.004540   0.002271
    58  O    0.000001   3.139104   3.139104  -0.096714  -0.034850  -0.031343
    59  O    0.000001   3.112819   3.112819   0.038770  -0.015597  -0.087706
    60  O    0.000001   3.113489   3.113489   0.031771  -0.027519  -0.087434
    61  O    0.000000   3.110776   3.110776  -0.003861   0.002152   0.002322
    62  O    0.000001   3.139163   3.139163   0.017315   0.101150  -0.031697
    63  O    0.000001   3.139345   3.139345  -0.082331  -0.061379  -0.031922
       Tot   0.000027 320.000128 320.000128  -0.006732   0.011071  -0.007617

 Dip from Atomic Chgs              0.013164   0.004914   0.019880
         Total Dipole              0.006432   0.015985   0.012263

 Hirshfeld charges, spin densities, dipoles, and CM5 charges using IRadAn=      5:
              Q-H        S-H        Dx         Dy         Dz        Q-CM5   
     1  Fe   0.167258   0.000000  -0.000059   0.000203   0.000771   0.494909
     2  Fe   0.396542   0.000000  -0.759704   0.316532   0.277604   0.560188
     3  Fe   0.396643   0.000000  -0.151412  -0.809540   0.277127   0.559707
     4  Fe   0.288975   0.000000  -0.026546  -0.014277  -0.061602   0.614319
     5  Fe   0.288997   0.000000   0.025508   0.011708   0.062254   0.615609
     6  Fe   0.397206   0.000000   0.149386   0.810647  -0.277131   0.560208
     7  Fe   0.396912   0.000000   0.760118  -0.315099  -0.277789   0.559957
     8  Fe   0.396922   0.000000  -0.626145   0.534273   0.277871   0.559968
     9  Fe   0.288886   0.000000  -0.000108   0.028340  -0.062595   0.616819
    10  Fe   0.396047   0.000000   0.654524   0.498655   0.276825   0.559615
    11  Fe   0.394641   0.000000  -0.652654  -0.498625  -0.275728   0.559903
    12  Fe   0.289305   0.000000  -0.001107  -0.029914   0.061811   0.613707
    13  Fe   0.395512   0.000000   0.624622  -0.533568  -0.278029   0.559761
    14  Fe   0.289206   0.000000   0.025476  -0.015530  -0.062491   0.613931
    15  Fe   0.396264   0.000000   0.108878  -0.816567   0.276049   0.559827
    16  Fe   0.397732   0.000000   0.777344   0.276243   0.277873   0.560159
    17  Fe   0.397545   0.000000  -0.777939  -0.274464  -0.277963   0.559978
    18  Fe   0.396987   0.000000  -0.105671   0.817548  -0.277109   0.559954
    19  Fe   0.287605   0.000000  -0.025278   0.015683   0.061452   0.614332
    20  Ni   0.449991   0.000000   0.007140   0.007105  -0.122060   0.676688
    21  Ni   0.449715   0.000000   0.000801  -0.010257  -0.119804   0.673728
    22  Ni   0.450193   0.000000  -0.009071   0.009170  -0.119350   0.676747
    23  Ni   0.449425   0.000000   0.011128  -0.002368   0.119239   0.674708
    24  Ni   0.450020   0.000000  -0.003420   0.008278   0.120408   0.676553
    25  Ni   0.450097   0.000000  -0.011833  -0.003086   0.118801   0.675217
    26  O   -0.198475   0.000000   0.000131   0.000079  -0.057767  -0.360644
    27  O   -0.262312   0.000000   0.016976   0.009025  -0.005718  -0.479849
    28  O   -0.262785   0.000000  -0.000395  -0.019494  -0.006002  -0.479057
    29  O   -0.261523   0.000000  -0.016201   0.009739  -0.005015  -0.480265
    30  O   -0.220997   0.000000  -0.004622  -0.002698  -0.002589  -0.442431
    31  O   -0.278835   0.000000   0.013142  -0.102089   0.031216  -0.389078
    32  O   -0.278167   0.000000  -0.078119   0.067031   0.030467  -0.388309
    33  O   -0.227536   0.000000   0.039924   0.013652   0.087258  -0.336752
    34  O   -0.226645   0.000000   0.033870   0.026237   0.086891  -0.337698
    35  O   -0.279630   0.000000   0.096827   0.034749   0.031607  -0.390118
    36  O   -0.221714   0.000000   0.000296   0.004412  -0.002211  -0.441567
    37  O   -0.278822   0.000000  -0.094951   0.039719   0.031301  -0.388878
    38  O   -0.225293   0.000000   0.005720  -0.041739   0.087247  -0.335169
    39  O   -0.227983   0.000000  -0.008382  -0.042003   0.086946  -0.338861
    40  O   -0.277565   0.000000   0.081532   0.062651   0.030116  -0.387816
    41  O   -0.279442   0.000000  -0.018401  -0.101233   0.031495  -0.389393
    42  O   -0.220970   0.000000   0.003601  -0.002626  -0.002235  -0.441761
    43  O   -0.225902   0.000000  -0.031301   0.027411   0.087659  -0.336626
    44  O   -0.226381   0.000000  -0.038803   0.015935   0.087419  -0.336264
    45  O   -0.262410   0.000000   0.016487  -0.010096   0.005521  -0.479388
    46  O   -0.262193   0.000000   0.000821   0.018926   0.005539  -0.480012
    47  O   -0.262739   0.000000  -0.017094  -0.008954   0.006020  -0.479014
    48  O   -0.198687   0.000000   0.000293  -0.000120   0.057987  -0.360115
    49  O   -0.226870   0.000000  -0.033550  -0.025470  -0.087164  -0.337149
    50  O   -0.224884   0.000000  -0.039609  -0.013623  -0.087826  -0.335185
    51  O   -0.280302   0.000000   0.078894  -0.066529  -0.032239  -0.390011
    52  O   -0.277751   0.000000  -0.012683   0.101983  -0.031044  -0.388463
    53  O   -0.221586   0.000000   0.003375   0.002002   0.001996  -0.441540
    54  O   -0.225862   0.000000   0.007523   0.041540  -0.087154  -0.336265
    55  O   -0.226696   0.000000  -0.005631   0.042239  -0.087153  -0.336548
    56  O   -0.277452   0.000000   0.094736  -0.040093  -0.031108  -0.388037
    57  O   -0.221084   0.000000  -0.000062  -0.004540   0.002271  -0.442070
    58  O   -0.278207   0.000000  -0.096714  -0.034850  -0.031343  -0.388682
    59  O   -0.225638   0.000000   0.038770  -0.015597  -0.087706  -0.335561
    60  O   -0.226978   0.000000   0.031771  -0.027519  -0.087434  -0.336860
    61  O   -0.221552   0.000000  -0.003861   0.002152   0.002322  -0.441790
    62  O   -0.278325   0.000000   0.017315   0.101150  -0.031697  -0.389890
    63  O   -0.278690   0.000000  -0.082331  -0.061379  -0.031922  -0.389627
       Tot  -0.000255   0.000000  -0.006732   0.011071  -0.007617  -0.000255
 Hirshfeld charges with hydrogens summed into heavy atoms:
              Q-H       Q-CM5   
     1  Fe   0.167258   0.494909
     2  Fe   0.396542   0.560188
     3  Fe   0.396643   0.559707
     4  Fe   0.288975   0.614319
     5  Fe   0.288997   0.615609
     6  Fe   0.397206   0.560208
     7  Fe   0.396912   0.559957
     8  Fe   0.396922   0.559968
     9  Fe   0.288886   0.616819
    10  Fe   0.396047   0.559615
    11  Fe   0.394641   0.559903
    12  Fe   0.289305   0.613707
    13  Fe   0.395512   0.559761
    14  Fe   0.289206   0.613931
    15  Fe   0.396264   0.559827
    16  Fe   0.397732   0.560159
    17  Fe   0.397545   0.559978
    18  Fe   0.396987   0.559954
    19  Fe   0.287605   0.614332
    20  Ni   0.449991   0.676688
    21  Ni   0.449715   0.673728
    22  Ni   0.450193   0.676747
    23  Ni   0.449425   0.674708
    24  Ni   0.450020   0.676553
    25  Ni   0.450097   0.675217
    26  O   -0.198475  -0.360644
    27  O   -0.262312  -0.479849
    28  O   -0.262785  -0.479057
    29  O   -0.261523  -0.480265
    30  O   -0.220997  -0.442431
    31  O   -0.278835  -0.389078
    32  O   -0.278167  -0.388309
    33  O   -0.227536  -0.336752
    34  O   -0.226645  -0.337698
    35  O   -0.279630  -0.390118
    36  O   -0.221714  -0.441567
    37  O   -0.278822  -0.388878
    38  O   -0.225293  -0.335169
    39  O   -0.227983  -0.338861
    40  O   -0.277565  -0.387816
    41  O   -0.279442  -0.389393
    42  O   -0.220970  -0.441761
    43  O   -0.225902  -0.336626
    44  O   -0.226381  -0.336264
    45  O   -0.262410  -0.479388
    46  O   -0.262193  -0.480012
    47  O   -0.262739  -0.479014
    48  O   -0.198687  -0.360115
    49  O   -0.226870  -0.337149
    50  O   -0.224884  -0.335185
    51  O   -0.280302  -0.390011
    52  O   -0.277751  -0.388463
    53  O   -0.221586  -0.441540
    54  O   -0.225862  -0.336265
    55  O   -0.226696  -0.336548
    56  O   -0.277452  -0.388037
    57  O   -0.221084  -0.442070
    58  O   -0.278207  -0.388682
    59  O   -0.225638  -0.335561
    60  O   -0.226978  -0.336860
    61  O   -0.221552  -0.441790
    62  O   -0.278325  -0.389890
    63  O   -0.278690  -0.389627
 
 EQQ=  0.00000000000     EQD=  0.00000000000     EDD= 0.491232758721E-02
 EQQ+QD+DD= 0.491232758721E-02
 
 No NMR shielding tensors so no spin-rotation constants.
 Leave Link  601 at Mon Oct 20 08:37:07 2025, MaxMem=  4294967296 cpu:              86.9 elap:              11.0
 (Enter /opt/modules/software/gaussian/G16-C01/l9999.exe)
 Unable to Open any file for archive entry.
 1\1\GINC-PRCC02008\SP\RPBE1PBE\GenECP\Fe19Ni6O38\FUTERA\20-Oct-2025\0\
 \#p PBE1PBE/GenECP SCF(Tight,QC,Restart) Pop(Hirshfeld)\\Nickel ferrat
 e (PBE0/SBKJC)\\0,1\Fe,0,14.5,15.19,14.9\Fe,0,10.,12.6,14.9\Fe,0,13.,1
 4.33,19.79\Fe,0,13.,17.79,14.9\Fe,0,16.,12.6,14.9\Fe,0,16.,16.06,10.\F
 e,0,18.99,17.79,14.9\Fe,0,10.,14.33,12.45\Fe,0,13.,16.06,17.34\Fe,0,13
 .,19.52,12.45\Fe,0,16.,10.87,17.34\Fe,0,16.,14.33,12.45\Fe,0,18.99,16.
 06,17.34\Fe,0,11.5,15.19,14.9\Fe,0,14.5,16.92,19.79\Fe,0,14.5,20.39,14
 .9\Fe,0,14.5,10.,14.9\Fe,0,14.5,13.46,10.\Fe,0,17.5,15.19,14.9\Ni,0,13
 .,12.6,16.73\Ni,0,13.,16.06,11.84\Ni,0,16.,17.79,16.73\Ni,0,13.,12.6,1
 3.06\Ni,0,16.,14.33,17.96\Ni,0,16.,17.79,13.06\O,0,11.61,16.86,16.08\O
 ,0,14.61,11.67,16.08\O,0,14.61,15.13,11.18\O,0,17.6,16.86,16.08\O,0,13
 .,14.45,16.08\O,0,13.,17.92,11.18\O,0,16.,19.65,16.08\O,0,16.,12.72,11
 .18\O,0,18.99,14.45,16.08\O,0,13.,12.6,18.7\O,0,13.,16.06,13.81\O,0,16
 .,17.79,18.7\O,0,16.,10.87,13.81\O,0,18.99,16.06,13.81\O,0,11.39,11.67
 ,16.08\O,0,11.39,15.13,11.18\O,0,14.39,16.86,16.08\O,0,17.39,11.67,16.
 08\O,0,17.39,15.13,11.18\O,0,11.39,13.52,13.72\O,0,14.39,15.26,18.61\O
 ,0,14.39,18.72,13.72\O,0,17.39,13.52,13.72\O,0,10.,15.93,13.72\O,0,13.
 ,17.66,18.61\O,0,13.,10.74,13.72\O,0,16.,12.47,18.61\O,0,16.,15.93,13.
 72\O,0,10.,14.33,15.99\O,0,13.,19.52,15.99\O,0,13.,12.6,11.09\O,0,16.,
 14.33,15.99\O,0,16.,17.79,11.09\O,0,11.61,15.26,18.61\O,0,11.61,18.72,
 13.72\O,0,14.61,13.52,13.72\O,0,17.6,15.26,18.61\O,0,17.6,18.72,13.72\
 \Version=ES64L-G16RevC.01\State=1-A\HF=-3963.2979643\RMSD=3.964e-12\Di
 pole=-0.0116796,0.013712,-0.0111988\Quadrupole=-44.6827118,14.9136904,
 29.7690214,51.5340109,36.2523135,-20.9682989\PG=C01 [X(Fe19Ni6O38)]\\@
 The archive entry for this job was punched.


 Mondays are the potholes in the road of life.
                                -- Tom Wilson
 Job cpu time:       0 days  0 hours 21 minutes 36.9 seconds.
 Elapsed time:       0 days  0 hours  2 minutes 43.2 seconds.
 File lengths (MBytes):  RWF=    386 Int=      0 D2E=      0 Chk=     64 Scr=      1
 Normal termination of Gaussian 16 at Mon Oct 20 08:37:07 2025.
