 Entering Gaussian System, Link 0=g16
 Input=charges.com
 Output=charges.log
 Initial command:
 /opt/modules/software/gaussian/G16-C01/l1.exe "/home/futera/Downloads/nickel-ferrate/pbe0-sbkjc/Gau-22507.inp" -scrdir="/home/futera/Downloads/nickel-ferrate/pbe0-sbkjc/"
 Entering Link 1 = /opt/modules/software/gaussian/G16-C01/l1.exe PID=     22508.
  
 Copyright (c) 1988-2019, Gaussian, Inc.  All Rights Reserved.
  
 This is part of the Gaussian(R) 16 program.  It is based on
 the Gaussian(R) 09 system (copyright 2009, Gaussian, Inc.),
 the Gaussian(R) 03 system (copyright 2003, Gaussian, Inc.),
 the Gaussian(R) 98 system (copyright 1998, Gaussian, Inc.),
 the Gaussian(R) 94 system (copyright 1995, Gaussian, Inc.),
 the Gaussian 92(TM) system (copyright 1992, Gaussian, Inc.),
 the Gaussian 90(TM) system (copyright 1990, Gaussian, Inc.),
 the Gaussian 88(TM) system (copyright 1988, Gaussian, Inc.),
 the Gaussian 86(TM) system (copyright 1986, Carnegie Mellon
 University), and the Gaussian 82(TM) system (copyright 1983,
 Carnegie Mellon University). Gaussian is a federally registered
 trademark of Gaussian, Inc.
  
 This software contains proprietary and confidential information,
 including trade secrets, belonging to Gaussian, Inc.
  
 This software is provided under written license and may be
 used, copied, transmitted, or stored only in accord with that
 written license.
  
 The following legend is applicable only to US Government
 contracts under FAR:
  
                    RESTRICTED RIGHTS LEGEND
  
 Use, reproduction and disclosure by the US Government is
 subject to restrictions as set forth in subparagraphs (a)
 and (c) of the Commercial Computer Software - Restricted
 Rights clause in FAR 52.227-19.
  
 Gaussian, Inc.
 340 Quinnipiac St., Bldg. 40, Wallingford CT 06492
  
  
 ---------------------------------------------------------------
 Warning -- This program may not be used in any manner that
 competes with the business of Gaussian, Inc. or will provide
 assistance to any competitor of Gaussian, Inc.  The licensee
 of this program is prohibited from giving any competitor of
 Gaussian, Inc. access to this program.  By using this program,
 the user acknowledges that Gaussian, Inc. is engaged in the
 business of creating and licensing software in the field of
 computational chemistry and represents and warrants to the
 licensee that it is not a competitor of Gaussian, Inc. and that
 it will not use this program in any manner prohibited above.
 ---------------------------------------------------------------
  

 Cite this work as:
 Gaussian 16, Revision C.01,
 M. J. Frisch, G. W. Trucks, H. B. Schlegel, G. E. Scuseria, 
 M. A. Robb, J. R. Cheeseman, G. Scalmani, V. Barone, 
 G. A. Petersson, H. Nakatsuji, X. Li, M. Caricato, A. V. Marenich, 
 J. Bloino, B. G. Janesko, R. Gomperts, B. Mennucci, H. P. Hratchian, 
 J. V. Ortiz, A. F. Izmaylov, J. L. Sonnenberg, D. Williams-Young, 
 F. Ding, F. Lipparini, F. Egidi, J. Goings, B. Peng, A. Petrone, 
 T. Henderson, D. Ranasinghe, V. G. Zakrzewski, J. Gao, N. Rega, 
 G. Zheng, W. Liang, M. Hada, M. Ehara, K. Toyota, R. Fukuda, 
 J. Hasegawa, M. Ishida, T. Nakajima, Y. Honda, O. Kitao, H. Nakai, 
 T. Vreven, K. Throssell, J. A. Montgomery, Jr., J. E. Peralta, 
 F. Ogliaro, M. J. Bearpark, J. J. Heyd, E. N. Brothers, K. N. Kudin, 
 V. N. Staroverov, T. A. Keith, R. Kobayashi, J. Normand, 
 K. Raghavachari, A. P. Rendell, J. C. Burant, S. S. Iyengar, 
 J. Tomasi, M. Cossi, J. M. Millam, M. Klene, C. Adamo, R. Cammi, 
 J. W. Ochterski, R. L. Martin, K. Morokuma, O. Farkas, 
 J. B. Foresman, and D. J. Fox, Gaussian, Inc., Wallingford CT, 2019.
 
 ******************************************
 Gaussian 16:  ES64L-G16RevC.01  3-Jul-2019
                17-Oct-2025 
 ******************************************
 %mem=48GB
 %nproc=16
 Will use up to   16 processors via shared memory.
 %chk=charges.chk
 ----------------------------------------------------------------------
 #p PBE1PBE/GenECP SCF(Tight,XQC,MaxCycle=500,MaxConventional=50) Pop(M
 K)
 ----------------------------------------------------------------------
 1/38=1,172=1/1;
 2/12=2,17=6,18=5,40=1/2;
 3/5=7,11=2,16=1,17=8,25=1,30=1,74=-13/1,2,3;
 4//1;
 5/5=2,7=500,8=3,13=1,32=2,38=5,85=50/2,8;
 6/7=2,8=2,9=2,10=2,15=8,20=1,28=1/1,2;
 99/5=1,9=1/99;
 Leave Link    1 at Fri Oct 17 10:03:53 2025, MaxMem=  6442450944 cpu:               0.3 elap:               0.0
 (Enter /opt/modules/software/gaussian/G16-C01/l101.exe)
 ---------------------------
 Nickel ferrate (PBE0/SBKJC)
 ---------------------------
 Symbolic Z-matrix:
 Charge =  0 Multiplicity = 1
 Fe                    14.5      15.19     14.9 
 Fe                    10.       12.6      14.9 
 Fe                    13.       14.33     19.79 
 Fe                    13.       17.79     14.9 
 Fe                    16.       12.6      14.9 
 Fe                    16.       16.06     10. 
 Fe                    18.99     17.79     14.9 
 Fe                    10.       14.33     12.45 
 Fe                    13.       16.06     17.34 
 Fe                    13.       19.52     12.45 
 Fe                    16.       10.87     17.34 
 Fe                    16.       14.33     12.45 
 Fe                    18.99     16.06     17.34 
 Fe                    11.5      15.19     14.9 
 Fe                    14.5      16.92     19.79 
 Fe                    14.5      20.39     14.9 
 Fe                    14.5      10.       14.9 
 Fe                    14.5      13.46     10. 
 Fe                    17.5      15.19     14.9 
 Ni                    13.       12.6      16.73 
 Ni                    13.       16.06     11.84 
 Ni                    16.       17.79     16.73 
 Ni                    13.       12.6      13.06 
 Ni                    16.       14.33     17.96 
 Ni                    16.       17.79     13.06 
 O                     11.61     16.86     16.08 
 O                     14.61     11.67     16.08 
 O                     14.61     15.13     11.18 
 O                     17.6      16.86     16.08 
 O                     13.       14.45     16.08 
 O                     13.       17.92     11.18 
 O                     16.       19.65     16.08 
 O                     16.       12.72     11.18 
 O                     18.99     14.45     16.08 
 O                     13.       12.6      18.7 
 O                     13.       16.06     13.81 
 O                     16.       17.79     18.7 
 O                     16.       10.87     13.81 
 O                     18.99     16.06     13.81 
 O                     11.39     11.67     16.08 
 O                     11.39     15.13     11.18 
 O                     14.39     16.86     16.08 
 O                     17.39     11.67     16.08 
 O                     17.39     15.13     11.18 
 O                     11.39     13.52     13.72 
 O                     14.39     15.26     18.61 
 O                     14.39     18.72     13.72 
 O                     17.39     13.52     13.72 
 O                     10.       15.93     13.72 
 O                     13.       17.66     18.61 
 O                     13.       10.74     13.72 
 O                     16.       12.47     18.61 
 O                     16.       15.93     13.72 
 O                     10.       14.33     15.99 
 O                     13.       19.52     15.99 
 O                     13.       12.6      11.09 
 O                     16.       14.33     15.99 
 O                     16.       17.79     11.09 
 O                     11.61     15.26     18.61 
 O                     11.61     18.72     13.72 
 O                     14.61     13.52     13.72 
 O                     17.6      15.26     18.61 
 O                     17.6      18.72     13.72 
 
 ITRead=  0  0  0  0  0  0  0  0  0  0  0  0  0  0  0  0  0  0  0  0
 ITRead=  0  0  0  0  0  0  0  0  0  0  0  0  0  0  0  0  0  0  0  0
 ITRead=  0  0  0  0  0  0  0  0  0  0  0  0  0  0  0  0  0  0  0  0
 ITRead=  0  0  0
 MicOpt= -1 -1 -1 -1 -1 -1 -1 -1 -1 -1 -1 -1 -1 -1 -1 -1 -1 -1 -1 -1
 MicOpt= -1 -1 -1 -1 -1 -1 -1 -1 -1 -1 -1 -1 -1 -1 -1 -1 -1 -1 -1 -1
 MicOpt= -1 -1 -1 -1 -1 -1 -1 -1 -1 -1 -1 -1 -1 -1 -1 -1 -1 -1 -1 -1
 MicOpt= -1 -1 -1
 NAtoms=     63 NQM=       63 NQMF=       0 NMMI=      0 NMMIF=      0
                NMic=       0 NMicF=      0.
                    Isotopes and Nuclear Properties:
 (Nuclear quadrupole moments (NQMom) in fm**2, nuclear magnetic moments (NMagM)
  in nuclear magnetons)

  Atom         1           2           3           4           5           6           7           8           9          10
 IAtWgt=          56          56          56          56          56          56          56          56          56          56
 AtmWgt=  55.9349393  55.9349393  55.9349393  55.9349393  55.9349393  55.9349393  55.9349393  55.9349393  55.9349393  55.9349393
 NucSpn=           0           0           0           0           0           0           0           0           0           0
 AtZEff=  -0.0000000  -0.0000000  -0.0000000  -0.0000000  -0.0000000  -0.0000000  -0.0000000  -0.0000000  -0.0000000  -0.0000000
 NQMom=    0.0000000   0.0000000   0.0000000   0.0000000   0.0000000   0.0000000   0.0000000   0.0000000   0.0000000   0.0000000
 NMagM=    0.0000000   0.0000000   0.0000000   0.0000000   0.0000000   0.0000000   0.0000000   0.0000000   0.0000000   0.0000000
 AtZNuc=  26.0000000  26.0000000  26.0000000  26.0000000  26.0000000  26.0000000  26.0000000  26.0000000  26.0000000  26.0000000

  Atom        11          12          13          14          15          16          17          18          19          20
 IAtWgt=          56          56          56          56          56          56          56          56          56          58
 AtmWgt=  55.9349393  55.9349393  55.9349393  55.9349393  55.9349393  55.9349393  55.9349393  55.9349393  55.9349393  57.9353471
 NucSpn=           0           0           0           0           0           0           0           0           0           0
 AtZEff=  -0.0000000  -0.0000000  -0.0000000  -0.0000000  -0.0000000  -0.0000000  -0.0000000  -0.0000000  -0.0000000  -0.0000000
 NQMom=    0.0000000   0.0000000   0.0000000   0.0000000   0.0000000   0.0000000   0.0000000   0.0000000   0.0000000   0.0000000
 NMagM=    0.0000000   0.0000000   0.0000000   0.0000000   0.0000000   0.0000000   0.0000000   0.0000000   0.0000000   0.0000000
 AtZNuc=  26.0000000  26.0000000  26.0000000  26.0000000  26.0000000  26.0000000  26.0000000  26.0000000  26.0000000  28.0000000

  Atom        21          22          23          24          25          26          27          28          29          30
 IAtWgt=          58          58          58          58          58          16          16          16          16          16
 AtmWgt=  57.9353471  57.9353471  57.9353471  57.9353471  57.9353471  15.9949146  15.9949146  15.9949146  15.9949146  15.9949146
 NucSpn=           0           0           0           0           0           0           0           0           0           0
 AtZEff=  -0.0000000  -0.0000000  -0.0000000  -0.0000000  -0.0000000  -0.0000000  -0.0000000  -0.0000000  -0.0000000  -0.0000000
 NQMom=    0.0000000   0.0000000   0.0000000   0.0000000   0.0000000   0.0000000   0.0000000   0.0000000   0.0000000   0.0000000
 NMagM=    0.0000000   0.0000000   0.0000000   0.0000000   0.0000000   0.0000000   0.0000000   0.0000000   0.0000000   0.0000000
 AtZNuc=  28.0000000  28.0000000  28.0000000  28.0000000  28.0000000   8.0000000   8.0000000   8.0000000   8.0000000   8.0000000

  Atom        31          32          33          34          35          36          37          38          39          40
 IAtWgt=          16          16          16          16          16          16          16          16          16          16
 AtmWgt=  15.9949146  15.9949146  15.9949146  15.9949146  15.9949146  15.9949146  15.9949146  15.9949146  15.9949146  15.9949146
 NucSpn=           0           0           0           0           0           0           0           0           0           0
 AtZEff=  -0.0000000  -0.0000000  -0.0000000  -0.0000000  -0.0000000  -0.0000000  -0.0000000  -0.0000000  -0.0000000  -0.0000000
 NQMom=    0.0000000   0.0000000   0.0000000   0.0000000   0.0000000   0.0000000   0.0000000   0.0000000   0.0000000   0.0000000
 NMagM=    0.0000000   0.0000000   0.0000000   0.0000000   0.0000000   0.0000000   0.0000000   0.0000000   0.0000000   0.0000000
 AtZNuc=   8.0000000   8.0000000   8.0000000   8.0000000   8.0000000   8.0000000   8.0000000   8.0000000   8.0000000   8.0000000

  Atom        41          42          43          44          45          46          47          48          49          50
 IAtWgt=          16          16          16          16          16          16          16          16          16          16
 AtmWgt=  15.9949146  15.9949146  15.9949146  15.9949146  15.9949146  15.9949146  15.9949146  15.9949146  15.9949146  15.9949146
 NucSpn=           0           0           0           0           0           0           0           0           0           0
 AtZEff=  -0.0000000  -0.0000000  -0.0000000  -0.0000000  -0.0000000  -0.0000000  -0.0000000  -0.0000000  -0.0000000  -0.0000000
 NQMom=    0.0000000   0.0000000   0.0000000   0.0000000   0.0000000   0.0000000   0.0000000   0.0000000   0.0000000   0.0000000
 NMagM=    0.0000000   0.0000000   0.0000000   0.0000000   0.0000000   0.0000000   0.0000000   0.0000000   0.0000000   0.0000000
 AtZNuc=   8.0000000   8.0000000   8.0000000   8.0000000   8.0000000   8.0000000   8.0000000   8.0000000   8.0000000   8.0000000

  Atom        51          52          53          54          55          56          57          58          59          60
 IAtWgt=          16          16          16          16          16          16          16          16          16          16
 AtmWgt=  15.9949146  15.9949146  15.9949146  15.9949146  15.9949146  15.9949146  15.9949146  15.9949146  15.9949146  15.9949146
 NucSpn=           0           0           0           0           0           0           0           0           0           0
 AtZEff=  -0.0000000  -0.0000000  -0.0000000  -0.0000000  -0.0000000  -0.0000000  -0.0000000  -0.0000000  -0.0000000  -0.0000000
 NQMom=    0.0000000   0.0000000   0.0000000   0.0000000   0.0000000   0.0000000   0.0000000   0.0000000   0.0000000   0.0000000
 NMagM=    0.0000000   0.0000000   0.0000000   0.0000000   0.0000000   0.0000000   0.0000000   0.0000000   0.0000000   0.0000000
 AtZNuc=   8.0000000   8.0000000   8.0000000   8.0000000   8.0000000   8.0000000   8.0000000   8.0000000   8.0000000   8.0000000

  Atom        61          62          63
 IAtWgt=          16          16          16
 AtmWgt=  15.9949146  15.9949146  15.9949146
 NucSpn=           0           0           0
 AtZEff=  -0.0000000  -0.0000000  -0.0000000
 NQMom=    0.0000000   0.0000000   0.0000000
 NMagM=    0.0000000   0.0000000   0.0000000
 AtZNuc=   8.0000000   8.0000000   8.0000000
 Leave Link  101 at Fri Oct 17 10:03:53 2025, MaxMem=  6442450944 cpu:               1.8 elap:               0.1
 (Enter /opt/modules/software/gaussian/G16-C01/l202.exe)
 Stoichiometry    Fe19Ni6O38
 Framework group  C1[X(Fe19Ni6O38)]
 Deg. of freedom   183
 Full point group                 C1      NOp   1
 Largest Abelian subgroup         C1      NOp   1
 Largest concise Abelian subgroup C1      NOp   1
                         Standard orientation:                         
 ---------------------------------------------------------------------
 Center     Atomic      Atomic             Coordinates (Angstroms)
 Number     Number       Type             X           Y           Z
 ---------------------------------------------------------------------
      1         26           0       -0.002927   -0.003199   -0.001747
      2         26           0       -4.470899    0.983185    2.452305
      3         26           0       -1.611031   -4.282377    2.448628
      4         26           0        1.521645    0.823506    2.448200
      5         26           0       -1.518797   -0.828467   -2.446982
      6         26           0        1.614129    4.286840   -2.450745
      7         26           0        4.468827   -0.985126   -2.442922
      8         26           0       -2.904436    3.540839    2.450423
      9         26           0       -0.044569   -1.724723    2.446747
     10         26           0        3.088108    3.381159    2.446318
     11         26           0       -3.085011   -3.376696   -2.448435
     12         26           0        0.047666    1.729187   -2.448864
     13         26           0        2.902613   -3.533356   -2.444375
     14         26           0       -1.478978    0.902627    2.447896
     15         26           0        1.380890   -4.362935    2.444220
     16         26           0        4.522268    0.744385    2.448503
     17         26           0       -4.519420   -0.749346   -2.447285
     18         26           0       -1.386495    4.365961   -2.451049
     19         26           0        1.473124   -0.909025   -2.451390
     20         28           0       -3.040385   -1.647276    0.612956
     21         28           0        0.092291    3.458607    0.612528
     22         28           0        2.952159   -1.806955    0.608851
     23         28           0       -2.949062    1.811419   -0.610968
     24         28           0       -0.089443   -3.463567   -0.611310
     25         28           0        3.043482    1.651740   -0.615073
     26          8           0       -0.000935   -0.002557    3.538507
     27          8           0       -3.041377   -1.654530   -1.356675
     28          8           0        0.091548    3.460777   -1.360438
     29          8           0        2.946247   -1.811190   -1.352615
     30          8           0       -1.414285   -0.768733    1.267909
     31          8           0        1.727342    4.348012    1.268857
     32          8           0        4.586961   -0.926975    1.268515
     33          8           0       -1.321802    2.694601   -3.631036
     34          8           0        1.532897   -2.577366   -3.623213
     35          8           0       -3.089406   -3.503851    1.269940
     36          8           0        0.043271    1.602032    1.269511
     37          8           0        2.903138   -3.663530    1.265835
     38          8           0       -2.997171   -0.049940   -3.625670
     39          8           0        2.990453   -0.206600   -3.621610
     40          8           0       -4.625672   -0.682277    1.272609
     41          8           0       -1.492747    4.433030    1.268845
     42          8           0        1.366872   -0.841956    1.268504
     43          8           0       -1.673570   -2.493928   -3.626677
     44          8           0        1.459356    2.621378   -3.630441
     45          8           0       -2.957021    1.807811    1.357286
     46          8           0       -0.088451   -3.456314    1.358321
     47          8           0        3.044225    1.649569    1.357893
     48          8           0       -0.004919   -0.003841   -3.542001
     49          8           0       -1.543671    2.573987    3.627884
     50          8           0        1.316197   -2.691575    3.624207
     51          8           0       -4.584113    0.922014   -1.267297
     52          8           0       -1.724245   -4.343548   -1.270974
     53          8           0        1.408431    0.762335   -1.271403
     54          8           0       -2.992525    0.204659    3.630993
     55          8           0        3.000020    0.044980    3.626888
     56          8           0       -2.900041    3.667993   -1.267952
     57          8           0       -0.040422   -1.606993   -1.268293
     58          8           0        3.092503    3.508314   -1.272057
     59          8           0       -1.456258   -2.616915    3.628324
     60          8           0        1.676418    2.488968    3.627895
     61          8           0       -1.372726    0.835558   -1.271998
     62          8           0        1.490924   -4.425547   -1.262797
     63          8           0        4.623600    0.680335   -1.263226
 ---------------------------------------------------------------------
 Rotational constants (GHZ):           0.0219673           0.0219629           0.0190309
 Leave Link  202 at Fri Oct 17 10:03:53 2025, MaxMem=  6442450944 cpu:               0.0 elap:               0.0
 (Enter /opt/modules/software/gaussian/G16-C01/l301.exe)
 General basis read from cards:  (5D, 7F)
 Centers:      26     27     28     29     30     31     32     33     34     35
 Centers:      36     37     38     39     40     41     42     43     44     45
 Centers:      46     47     48     49     50     51     52     53     54     55
 Centers:      56     57     58     59     60     61     62     63
 SP 3 1.00
     Exponent=  8.5190000000D+00 Coefficients= -1.4551000000D-01  1.1007000000D-01
     Exponent=  2.0730000000D+00 Coefficients=  8.2860000000D-02  3.4969000000D-01
     Exponent=  6.4710000000D-01 Coefficients=  7.4325000000D-01  4.8093000000D-01
 SP 1 1.00
     Exponent=  2.0000000000D-01 Coefficients=  2.8472000000D-01  3.0727000000D-01
 ****
 Centers:       1      2      3      4      5      6      7      8      9     10
 Centers:      11     12     13     14     15     16     17     18     19
 SP 4 1.00
     Exponent=  7.0280000000D+01 Coefficients= -2.6110000000D-03 -7.9400000000D-03
     Exponent=  6.0610000000D+00 Coefficients= -6.9243500000D-01 -2.9015100000D-01
     Exponent=  4.1340000000D+00 Coefficients=  3.6253000000D-01  5.9102800000D-01
     Exponent=  1.4210000000D+00 Coefficients=  1.1406450000D+00  7.1944800000D-01
 SP 1 1.00
     Exponent=  5.1210000000D-01 Coefficients=  1.0000000000D+00  1.0000000000D+00
 SP 2 1.00
     Exponent=  1.9780000000D+00 Coefficients= -9.8172000000D-02 -3.3731000000D-02
     Exponent=  1.2130000000D-01 Coefficients=  1.0269570000D+00  1.0044620000D+00
 SP 1 1.00
     Exponent=  4.1000000000D-02 Coefficients=  1.0000000000D+00  1.0000000000D+00
 D 4 1.00
     Exponent=  4.7100000000D+01 Coefficients=  2.6608000000D-02
     Exponent=  1.3120000000D+01 Coefficients=  1.5201000000D-01
     Exponent=  4.4780000000D+00 Coefficients=  4.1382700000D-01
     Exponent=  1.5810000000D+00 Coefficients=  6.0554200000D-01
 D 1 1.00
     Exponent=  5.1000000000D-01 Coefficients=  1.0000000000D+00
 D 1 1.00
     Exponent=  1.3820000000D-01 Coefficients=  1.0000000000D+00
 ****
 Centers:      20     21     22     23     24     25
 SP 4 1.00
     Exponent=  8.9360000000D+01 Coefficients= -5.2200000000D-03 -7.5290000000D-03
     Exponent=  7.2650000000D+00 Coefficients= -6.8399300000D-01 -4.4586200000D-01
     Exponent=  5.5720000000D+00 Coefficients=  2.5105000000D-01  7.0636400000D-01
     Exponent=  1.8500000000D+00 Coefficients=  1.2364510000D+00  7.5360600000D-01
 SP 1 1.00
     Exponent=  6.5940000000D-01 Coefficients=  1.0000000000D+00  1.0000000000D+00
 SP 2 1.00
     Exponent=  3.2350000000D+00 Coefficients= -6.3418000000D-02  1.1360000000D-03
     Exponent=  1.2950000000D-01 Coefficients=  1.0132370000D+00  9.9989500000D-01
 SP 1 1.00
     Exponent=  4.3270000000D-02 Coefficients=  1.0000000000D+00  1.0000000000D+00
 D 4 1.00
     Exponent=  5.8730000000D+01 Coefficients=  2.6246000000D-02
     Exponent=  1.6710000000D+01 Coefficients=  1.5033400000D-01
     Exponent=  5.7830000000D+00 Coefficients=  4.1338500000D-01
     Exponent=  2.0640000000D+00 Coefficients=  6.0411400000D-01
 D 1 1.00
     Exponent=  6.7520000000D-01 Coefficients=  1.0000000000D+00
 D 1 1.00
     Exponent=  1.8250000000D-01 Coefficients=  1.0000000000D+00
 ****
 ======================================================================================================
                                       Pseudopotential Parameters
 ======================================================================================================
  Center     Atomic      Valence      Angular      Power
  Number     Number     Electrons     Momentum     of R      Exponent        Coefficient   SO-Coeffient
 ======================================================================================================
    1         26           16
                                      D and up 
                                                     1       17.6191000       -3.89423000    0.00000000
                                      S - D
                                                     0        2.3315000        3.81706000    0.00000000
                                                     2        6.0836500      172.05349000    0.00000000
                                                     2        5.2665900     -144.70056000    0.00000000
                                      P - D
                                                     0       49.4045600        4.13737000    0.00000000
                                                     2       11.4018300       82.73696000    0.00000000
    2         26           16
                                      D and up 
                                                     1       17.6191000       -3.89423000    0.00000000
                                      S - D
                                                     0        2.3315000        3.81706000    0.00000000
                                                     2        6.0836500      172.05349000    0.00000000
                                                     2        5.2665900     -144.70056000    0.00000000
                                      P - D
                                                     0       49.4045600        4.13737000    0.00000000
                                                     2       11.4018300       82.73696000    0.00000000
    3         26           16
                                      D and up 
                                                     1       17.6191000       -3.89423000    0.00000000
                                      S - D
                                                     0        2.3315000        3.81706000    0.00000000
                                                     2        6.0836500      172.05349000    0.00000000
                                                     2        5.2665900     -144.70056000    0.00000000
                                      P - D
                                                     0       49.4045600        4.13737000    0.00000000
                                                     2       11.4018300       82.73696000    0.00000000
    4         26           16
                                      D and up 
                                                     1       17.6191000       -3.89423000    0.00000000
                                      S - D
                                                     0        2.3315000        3.81706000    0.00000000
                                                     2        6.0836500      172.05349000    0.00000000
                                                     2        5.2665900     -144.70056000    0.00000000
                                      P - D
                                                     0       49.4045600        4.13737000    0.00000000
                                                     2       11.4018300       82.73696000    0.00000000
    5         26           16
                                      D and up 
                                                     1       17.6191000       -3.89423000    0.00000000
                                      S - D
                                                     0        2.3315000        3.81706000    0.00000000
                                                     2        6.0836500      172.05349000    0.00000000
                                                     2        5.2665900     -144.70056000    0.00000000
                                      P - D
                                                     0       49.4045600        4.13737000    0.00000000
                                                     2       11.4018300       82.73696000    0.00000000
    6         26           16
                                      D and up 
                                                     1       17.6191000       -3.89423000    0.00000000
                                      S - D
                                                     0        2.3315000        3.81706000    0.00000000
                                                     2        6.0836500      172.05349000    0.00000000
                                                     2        5.2665900     -144.70056000    0.00000000
                                      P - D
                                                     0       49.4045600        4.13737000    0.00000000
                                                     2       11.4018300       82.73696000    0.00000000
    7         26           16
                                      D and up 
                                                     1       17.6191000       -3.89423000    0.00000000
                                      S - D
                                                     0        2.3315000        3.81706000    0.00000000
                                                     2        6.0836500      172.05349000    0.00000000
                                                     2        5.2665900     -144.70056000    0.00000000
                                      P - D
                                                     0       49.4045600        4.13737000    0.00000000
                                                     2       11.4018300       82.73696000    0.00000000
    8         26           16
                                      D and up 
                                                     1       17.6191000       -3.89423000    0.00000000
                                      S - D
                                                     0        2.3315000        3.81706000    0.00000000
                                                     2        6.0836500      172.05349000    0.00000000
                                                     2        5.2665900     -144.70056000    0.00000000
                                      P - D
                                                     0       49.4045600        4.13737000    0.00000000
                                                     2       11.4018300       82.73696000    0.00000000
    9         26           16
                                      D and up 
                                                     1       17.6191000       -3.89423000    0.00000000
                                      S - D
                                                     0        2.3315000        3.81706000    0.00000000
                                                     2        6.0836500      172.05349000    0.00000000
                                                     2        5.2665900     -144.70056000    0.00000000
                                      P - D
                                                     0       49.4045600        4.13737000    0.00000000
                                                     2       11.4018300       82.73696000    0.00000000
   10         26           16
                                      D and up 
                                                     1       17.6191000       -3.89423000    0.00000000
                                      S - D
                                                     0        2.3315000        3.81706000    0.00000000
                                                     2        6.0836500      172.05349000    0.00000000
                                                     2        5.2665900     -144.70056000    0.00000000
                                      P - D
                                                     0       49.4045600        4.13737000    0.00000000
                                                     2       11.4018300       82.73696000    0.00000000
   11         26           16
                                      D and up 
                                                     1       17.6191000       -3.89423000    0.00000000
                                      S - D
                                                     0        2.3315000        3.81706000    0.00000000
                                                     2        6.0836500      172.05349000    0.00000000
                                                     2        5.2665900     -144.70056000    0.00000000
                                      P - D
                                                     0       49.4045600        4.13737000    0.00000000
                                                     2       11.4018300       82.73696000    0.00000000
   12         26           16
                                      D and up 
                                                     1       17.6191000       -3.89423000    0.00000000
                                      S - D
                                                     0        2.3315000        3.81706000    0.00000000
                                                     2        6.0836500      172.05349000    0.00000000
                                                     2        5.2665900     -144.70056000    0.00000000
                                      P - D
                                                     0       49.4045600        4.13737000    0.00000000
                                                     2       11.4018300       82.73696000    0.00000000
   13         26           16
                                      D and up 
                                                     1       17.6191000       -3.89423000    0.00000000
                                      S - D
                                                     0        2.3315000        3.81706000    0.00000000
                                                     2        6.0836500      172.05349000    0.00000000
                                                     2        5.2665900     -144.70056000    0.00000000
                                      P - D
                                                     0       49.4045600        4.13737000    0.00000000
                                                     2       11.4018300       82.73696000    0.00000000
   14         26           16
                                      D and up 
                                                     1       17.6191000       -3.89423000    0.00000000
                                      S - D
                                                     0        2.3315000        3.81706000    0.00000000
                                                     2        6.0836500      172.05349000    0.00000000
                                                     2        5.2665900     -144.70056000    0.00000000
                                      P - D
                                                     0       49.4045600        4.13737000    0.00000000
                                                     2       11.4018300       82.73696000    0.00000000
   15         26           16
                                      D and up 
                                                     1       17.6191000       -3.89423000    0.00000000
                                      S - D
                                                     0        2.3315000        3.81706000    0.00000000
                                                     2        6.0836500      172.05349000    0.00000000
                                                     2        5.2665900     -144.70056000    0.00000000
                                      P - D
                                                     0       49.4045600        4.13737000    0.00000000
                                                     2       11.4018300       82.73696000    0.00000000
   16         26           16
                                      D and up 
                                                     1       17.6191000       -3.89423000    0.00000000
                                      S - D
                                                     0        2.3315000        3.81706000    0.00000000
                                                     2        6.0836500      172.05349000    0.00000000
                                                     2        5.2665900     -144.70056000    0.00000000
                                      P - D
                                                     0       49.4045600        4.13737000    0.00000000
                                                     2       11.4018300       82.73696000    0.00000000
   17         26           16
                                      D and up 
                                                     1       17.6191000       -3.89423000    0.00000000
                                      S - D
                                                     0        2.3315000        3.81706000    0.00000000
                                                     2        6.0836500      172.05349000    0.00000000
                                                     2        5.2665900     -144.70056000    0.00000000
                                      P - D
                                                     0       49.4045600        4.13737000    0.00000000
                                                     2       11.4018300       82.73696000    0.00000000
   18         26           16
                                      D and up 
                                                     1       17.6191000       -3.89423000    0.00000000
                                      S - D
                                                     0        2.3315000        3.81706000    0.00000000
                                                     2        6.0836500      172.05349000    0.00000000
                                                     2        5.2665900     -144.70056000    0.00000000
                                      P - D
                                                     0       49.4045600        4.13737000    0.00000000
                                                     2       11.4018300       82.73696000    0.00000000
   19         26           16
                                      D and up 
                                                     1       17.6191000       -3.89423000    0.00000000
                                      S - D
                                                     0        2.3315000        3.81706000    0.00000000
                                                     2        6.0836500      172.05349000    0.00000000
                                                     2        5.2665900     -144.70056000    0.00000000
                                      P - D
                                                     0       49.4045600        4.13737000    0.00000000
                                                     2       11.4018300       82.73696000    0.00000000
   20         28           18
                                      D and up 
                                                     1       21.3637300       -3.99337000    0.00000000
                                      S - D
                                                     0        2.2181700        3.42572000    0.00000000
                                                     2        6.7158500      218.54146000    0.00000000
                                                     2        5.8085600     -184.10961000    0.00000000
                                      P - D
                                                     0       56.4535300        3.87540000    0.00000000
                                                     2       13.6653400       99.68289000    0.00000000
   21         28           18
                                      D and up 
                                                     1       21.3637300       -3.99337000    0.00000000
                                      S - D
                                                     0        2.2181700        3.42572000    0.00000000
                                                     2        6.7158500      218.54146000    0.00000000
                                                     2        5.8085600     -184.10961000    0.00000000
                                      P - D
                                                     0       56.4535300        3.87540000    0.00000000
                                                     2       13.6653400       99.68289000    0.00000000
   22         28           18
                                      D and up 
                                                     1       21.3637300       -3.99337000    0.00000000
                                      S - D
                                                     0        2.2181700        3.42572000    0.00000000
                                                     2        6.7158500      218.54146000    0.00000000
                                                     2        5.8085600     -184.10961000    0.00000000
                                      P - D
                                                     0       56.4535300        3.87540000    0.00000000
                                                     2       13.6653400       99.68289000    0.00000000
   23         28           18
                                      D and up 
                                                     1       21.3637300       -3.99337000    0.00000000
                                      S - D
                                                     0        2.2181700        3.42572000    0.00000000
                                                     2        6.7158500      218.54146000    0.00000000
                                                     2        5.8085600     -184.10961000    0.00000000
                                      P - D
                                                     0       56.4535300        3.87540000    0.00000000
                                                     2       13.6653400       99.68289000    0.00000000
   24         28           18
                                      D and up 
                                                     1       21.3637300       -3.99337000    0.00000000
                                      S - D
                                                     0        2.2181700        3.42572000    0.00000000
                                                     2        6.7158500      218.54146000    0.00000000
                                                     2        5.8085600     -184.10961000    0.00000000
                                      P - D
                                                     0       56.4535300        3.87540000    0.00000000
                                                     2       13.6653400       99.68289000    0.00000000
   25         28           18
                                      D and up 
                                                     1       21.3637300       -3.99337000    0.00000000
                                      S - D
                                                     0        2.2181700        3.42572000    0.00000000
                                                     2        6.7158500      218.54146000    0.00000000
                                                     2        5.8085600     -184.10961000    0.00000000
                                      P - D
                                                     0       56.4535300        3.87540000    0.00000000
                                                     2       13.6653400       99.68289000    0.00000000
   26          8            6
                                      P and up 
                                                     1       16.1171800       -0.92550000    0.00000000
                                      S - P
                                                     0        5.0534800        1.96069000    0.00000000
                                                     2       15.9533300       29.13442000    0.00000000
   27          8            6
                                      P and up 
                                                     1       16.1171800       -0.92550000    0.00000000
                                      S - P
                                                     0        5.0534800        1.96069000    0.00000000
                                                     2       15.9533300       29.13442000    0.00000000
   28          8            6
                                      P and up 
                                                     1       16.1171800       -0.92550000    0.00000000
                                      S - P
                                                     0        5.0534800        1.96069000    0.00000000
                                                     2       15.9533300       29.13442000    0.00000000
   29          8            6
                                      P and up 
                                                     1       16.1171800       -0.92550000    0.00000000
                                      S - P
                                                     0        5.0534800        1.96069000    0.00000000
                                                     2       15.9533300       29.13442000    0.00000000
   30          8            6
                                      P and up 
                                                     1       16.1171800       -0.92550000    0.00000000
                                      S - P
                                                     0        5.0534800        1.96069000    0.00000000
                                                     2       15.9533300       29.13442000    0.00000000
   31          8            6
                                      P and up 
                                                     1       16.1171800       -0.92550000    0.00000000
                                      S - P
                                                     0        5.0534800        1.96069000    0.00000000
                                                     2       15.9533300       29.13442000    0.00000000
   32          8            6
                                      P and up 
                                                     1       16.1171800       -0.92550000    0.00000000
                                      S - P
                                                     0        5.0534800        1.96069000    0.00000000
                                                     2       15.9533300       29.13442000    0.00000000
   33          8            6
                                      P and up 
                                                     1       16.1171800       -0.92550000    0.00000000
                                      S - P
                                                     0        5.0534800        1.96069000    0.00000000
                                                     2       15.9533300       29.13442000    0.00000000
   34          8            6
                                      P and up 
                                                     1       16.1171800       -0.92550000    0.00000000
                                      S - P
                                                     0        5.0534800        1.96069000    0.00000000
                                                     2       15.9533300       29.13442000    0.00000000
   35          8            6
                                      P and up 
                                                     1       16.1171800       -0.92550000    0.00000000
                                      S - P
                                                     0        5.0534800        1.96069000    0.00000000
                                                     2       15.9533300       29.13442000    0.00000000
   36          8            6
                                      P and up 
                                                     1       16.1171800       -0.92550000    0.00000000
                                      S - P
                                                     0        5.0534800        1.96069000    0.00000000
                                                     2       15.9533300       29.13442000    0.00000000
   37          8            6
                                      P and up 
                                                     1       16.1171800       -0.92550000    0.00000000
                                      S - P
                                                     0        5.0534800        1.96069000    0.00000000
                                                     2       15.9533300       29.13442000    0.00000000
   38          8            6
                                      P and up 
                                                     1       16.1171800       -0.92550000    0.00000000
                                      S - P
                                                     0        5.0534800        1.96069000    0.00000000
                                                     2       15.9533300       29.13442000    0.00000000
   39          8            6
                                      P and up 
                                                     1       16.1171800       -0.92550000    0.00000000
                                      S - P
                                                     0        5.0534800        1.96069000    0.00000000
                                                     2       15.9533300       29.13442000    0.00000000
   40          8            6
                                      P and up 
                                                     1       16.1171800       -0.92550000    0.00000000
                                      S - P
                                                     0        5.0534800        1.96069000    0.00000000
                                                     2       15.9533300       29.13442000    0.00000000
   41          8            6
                                      P and up 
                                                     1       16.1171800       -0.92550000    0.00000000
                                      S - P
                                                     0        5.0534800        1.96069000    0.00000000
                                                     2       15.9533300       29.13442000    0.00000000
   42          8            6
                                      P and up 
                                                     1       16.1171800       -0.92550000    0.00000000
                                      S - P
                                                     0        5.0534800        1.96069000    0.00000000
                                                     2       15.9533300       29.13442000    0.00000000
   43          8            6
                                      P and up 
                                                     1       16.1171800       -0.92550000    0.00000000
                                      S - P
                                                     0        5.0534800        1.96069000    0.00000000
                                                     2       15.9533300       29.13442000    0.00000000
   44          8            6
                                      P and up 
                                                     1       16.1171800       -0.92550000    0.00000000
                                      S - P
                                                     0        5.0534800        1.96069000    0.00000000
                                                     2       15.9533300       29.13442000    0.00000000
   45          8            6
                                      P and up 
                                                     1       16.1171800       -0.92550000    0.00000000
                                      S - P
                                                     0        5.0534800        1.96069000    0.00000000
                                                     2       15.9533300       29.13442000    0.00000000
   46          8            6
                                      P and up 
                                                     1       16.1171800       -0.92550000    0.00000000
                                      S - P
                                                     0        5.0534800        1.96069000    0.00000000
                                                     2       15.9533300       29.13442000    0.00000000
   47          8            6
                                      P and up 
                                                     1       16.1171800       -0.92550000    0.00000000
                                      S - P
                                                     0        5.0534800        1.96069000    0.00000000
                                                     2       15.9533300       29.13442000    0.00000000
   48          8            6
                                      P and up 
                                                     1       16.1171800       -0.92550000    0.00000000
                                      S - P
                                                     0        5.0534800        1.96069000    0.00000000
                                                     2       15.9533300       29.13442000    0.00000000
   49          8            6
                                      P and up 
                                                     1       16.1171800       -0.92550000    0.00000000
                                      S - P
                                                     0        5.0534800        1.96069000    0.00000000
                                                     2       15.9533300       29.13442000    0.00000000
   50          8            6
                                      P and up 
                                                     1       16.1171800       -0.92550000    0.00000000
                                      S - P
                                                     0        5.0534800        1.96069000    0.00000000
                                                     2       15.9533300       29.13442000    0.00000000
   51          8            6
                                      P and up 
                                                     1       16.1171800       -0.92550000    0.00000000
                                      S - P
                                                     0        5.0534800        1.96069000    0.00000000
                                                     2       15.9533300       29.13442000    0.00000000
   52          8            6
                                      P and up 
                                                     1       16.1171800       -0.92550000    0.00000000
                                      S - P
                                                     0        5.0534800        1.96069000    0.00000000
                                                     2       15.9533300       29.13442000    0.00000000
   53          8            6
                                      P and up 
                                                     1       16.1171800       -0.92550000    0.00000000
                                      S - P
                                                     0        5.0534800        1.96069000    0.00000000
                                                     2       15.9533300       29.13442000    0.00000000
   54          8            6
                                      P and up 
                                                     1       16.1171800       -0.92550000    0.00000000
                                      S - P
                                                     0        5.0534800        1.96069000    0.00000000
                                                     2       15.9533300       29.13442000    0.00000000
   55          8            6
                                      P and up 
                                                     1       16.1171800       -0.92550000    0.00000000
                                      S - P
                                                     0        5.0534800        1.96069000    0.00000000
                                                     2       15.9533300       29.13442000    0.00000000
   56          8            6
                                      P and up 
                                                     1       16.1171800       -0.92550000    0.00000000
                                      S - P
                                                     0        5.0534800        1.96069000    0.00000000
                                                     2       15.9533300       29.13442000    0.00000000
   57          8            6
                                      P and up 
                                                     1       16.1171800       -0.92550000    0.00000000
                                      S - P
                                                     0        5.0534800        1.96069000    0.00000000
                                                     2       15.9533300       29.13442000    0.00000000
   58          8            6
                                      P and up 
                                                     1       16.1171800       -0.92550000    0.00000000
                                      S - P
                                                     0        5.0534800        1.96069000    0.00000000
                                                     2       15.9533300       29.13442000    0.00000000
   59          8            6
                                      P and up 
                                                     1       16.1171800       -0.92550000    0.00000000
                                      S - P
                                                     0        5.0534800        1.96069000    0.00000000
                                                     2       15.9533300       29.13442000    0.00000000
   60          8            6
                                      P and up 
                                                     1       16.1171800       -0.92550000    0.00000000
                                      S - P
                                                     0        5.0534800        1.96069000    0.00000000
                                                     2       15.9533300       29.13442000    0.00000000
   61          8            6
                                      P and up 
                                                     1       16.1171800       -0.92550000    0.00000000
                                      S - P
                                                     0        5.0534800        1.96069000    0.00000000
                                                     2       15.9533300       29.13442000    0.00000000
   62          8            6
                                      P and up 
                                                     1       16.1171800       -0.92550000    0.00000000
                                      S - P
                                                     0        5.0534800        1.96069000    0.00000000
                                                     2       15.9533300       29.13442000    0.00000000
   63          8            6
                                      P and up 
                                                     1       16.1171800       -0.92550000    0.00000000
                                      S - P
                                                     0        5.0534800        1.96069000    0.00000000
                                                     2       15.9533300       29.13442000    0.00000000
 ======================================================================================================
 Ernie: Thresh=  0.10000D-02 Tol=  0.10000D-05 Strict=F.
 There are  1154 symmetry adapted cartesian basis functions of A   symmetry.
 There are  1079 symmetry adapted basis functions of A   symmetry.
  1079 basis functions,  2308 primitive gaussians,  1154 cartesian basis functions
   320 alpha electrons      320 beta electrons
       nuclear repulsion energy     21691.2859354048 Hartrees.
 IExCor= 1009 DFT=T Ex+Corr=PBE1PBE ExCW=0 ScaHFX=  0.250000
 ScaDFX=  0.750000  0.750000  1.000000  1.000000 ScalE2=  1.000000  1.000000
 IRadAn=      5 IRanWt=     -1 IRanGd=            0 ICorTp=0 IEmpDi=  4
 NAtoms=   63 NActive=   63 NUniq=   63 SFac= 1.00D+00 NAtFMM=   60 NAOKFM=T Big=T
 Integral buffers will be    131072 words long.
 Raffenetti 2 integral format.
 Two-electron integral symmetry is turned on.
 Leave Link  301 at Fri Oct 17 10:03:54 2025, MaxMem=  6442450944 cpu:               0.6 elap:               0.0
 (Enter /opt/modules/software/gaussian/G16-C01/l302.exe)
 NPDir=0 NMtPBC=     1 NCelOv=     1 NCel=       1 NClECP=     1 NCelD=      1
         NCelK=      1 NCelE2=     1 NClLst=     1 CellRange=     0.0.
 One-electron integrals computed using PRISM.
 One-electron integral symmetry used in STVInt
   1 Symmetry operations used in ECPInt.
 ECPInt:  NShTT=   31626 NPrTT=  126692 LenC2=   28312 LenP2D=   73550.
 LDataN:  DoStor=T MaxTD1= 4 Len=   56
 NBasis=  1079 RedAO= T EigKep=  4.73D-05  NBF=  1079
 NBsUse=  1079 1.00D-06 EigRej= -1.00D+00 NBFU=  1079
 Precomputing XC quadrature grid using
 IXCGrd= 4 IRadAn=           5 IRanWt=          -1 IRanGd=           0 AccXCQ= 0.00D+00.
 Generated NRdTot=       0 NPtTot=           0 NUsed=           0 NTot=          32
 NSgBfM=  1154  1154  1154  1154  1154 MxSgAt=    63 MxSgA2=    63.
 Leave Link  302 at Fri Oct 17 10:03:56 2025, MaxMem=  6442450944 cpu:              33.3 elap:               2.1
 (Enter /opt/modules/software/gaussian/G16-C01/l303.exe)
 DipDrv:  MaxL=1.
 Leave Link  303 at Fri Oct 17 10:03:56 2025, MaxMem=  6442450944 cpu:               1.3 elap:               0.1
 (Enter /opt/modules/software/gaussian/G16-C01/l401.exe)
 ExpMin= 4.10D-02 ExpMax= 8.94D+01 ExpMxC= 5.87D+01 IAcc=3 IRadAn=         5 AccDes= 0.00D+00
 Harris functional with IExCor= 1009 and IRadAn=       5 diagonalized for initial guess.
 HarFok:  IExCor= 1009 AccDes= 0.00D+00 IRadAn=         5 IDoV= 1 UseB2=F ITyADJ=14
 ICtDFT=  3500011 ScaDFX=  1.000000  1.000000  1.000000  1.000000
 FoFCou: FMM=F IPFlag=           0 FMFlag=      100000 FMFlg1=        2001
         NFxFlg=           0 DoJE=T BraDBF=F KetDBF=T FulRan=T
         wScrn=  0.000000 ICntrl=       500 IOpCl=  0 I1Cent=   200000004 NGrid=           0
         NMat0=    1 NMatS0=      1 NMatT0=    0 NMatD0=    1 NMtDS0=    0 NMtDT0=    0
 Petite list used in FoFCou.
 Harris En= -3971.01151860051    
 JPrj=0 DoOrth=F DoCkMO=F.
 Leave Link  401 at Fri Oct 17 10:04:04 2025, MaxMem=  6442450944 cpu:             131.9 elap:               8.3
 (Enter /opt/modules/software/gaussian/G16-C01/l502.exe)
 Integral symmetry usage will be decided dynamically.
 Closed shell SCF:
 Using DIIS extrapolation, IDIIS=  1040.
 NGot=  6442450944 LenX=  6439756974 LenY=  6438424104
 Requested convergence on RMS density matrix=1.00D-08 within  50 cycles.
 Requested convergence on MAX density matrix=1.00D-06.
 Requested convergence on             energy=1.00D-06.
 No special actions if energy rises.
 Fock matrices will be formed incrementally for  20 cycles.

 Cycle   1  Pass 1  IDiag  1:
 FoFJK:  IHMeth= 1 ICntrl=       0 DoSepK=F KAlg= 0 I1Cent=           0 FoldK=F
 IRaf= 990000000 NMat=       1 IRICut=       1 DoRegI=T DoRafI=F ISym2E= 0 IDoP0=0 IntGTp=1.
 FoFCou: FMM=T IPFlag=           0 FMFlag=      100000 FMFlg1=        2001
         NFxFlg=           0 DoJE=F BraDBF=F KetDBF=F FulRan=T
         wScrn=  0.000000 ICntrl=         0 IOpCl=  0 I1Cent=           0 NGrid=           0
         NMat0=    1 NMatS0=      1 NMatT0=    0 NMatD0=    1 NMtDS0=    0 NMtDT0=    0
 Symmetry not used in FoFCou.
 FMM levels:  10  Number of levels for PrismC:   9
 E= -3828.58481431304    
 DIIS: error= 7.95D-01 at cycle   1 NSaved=   1.
 NSaved= 1 IEnMin= 1 EnMin= -3828.58481431304     IErMin= 1 ErrMin= 7.95D-01
 ErrMax= 7.95D-01  0.00D+00 EMaxC= 1.00D-01 BMatC= 2.45D+02 BMatP= 2.45D+02
 IDIUse=3 WtCom= 0.00D+00 WtEn= 1.00D+00
 Coeff-Com:  0.100D+01
 Coeff-En:   0.100D+01
 Coeff:      0.100D+01
 Gap=    -0.968 Goal=   None    Shift=    0.000
 GapD=   -0.968 DampG=0.250 DampE=0.125 DampFc=0.1250 IDamp=-1.
 Damping current iteration by 1.25D-01
 RMSDP=1.24D+00 MaxDP=6.40D+02              OVMax= 9.01D-01

 Cycle   2  Pass 1  IDiag  1:
 RMSU=  1.53D-01    CP:  3.00D+00
 E= -3871.23117047182     Delta-E=      -42.646356158781 Rises=F Damp=T
 DIIS: error= 2.41D-01 at cycle   2 NSaved=   2.
 NSaved= 2 IEnMin= 2 EnMin= -3871.23117047182     IErMin= 2 ErrMin= 2.41D-01
 ErrMax= 2.41D-01  0.00D+00 EMaxC= 1.00D-01 BMatC= 3.73D+01 BMatP= 2.45D+02
 IDIUse=3 WtCom= 0.00D+00 WtEn= 1.00D+00
 Coeff-Com: -0.366D+00 0.137D+01
 Coeff-En:   0.179D+00 0.821D+00
 Coeff:      0.179D+00 0.821D+00
 Gap=    -0.193 Goal=   None    Shift=    0.000
 RMSDP=1.27D-01 MaxDP=7.20D+01 DE=-4.26D+01 OVMax= 9.92D-01

 Cycle   3  Pass 1  IDiag  1:
 RMSU=  1.13D-01    CP:  2.83D+00  6.20D-01
 E= -3365.46199484567     Delta-E=      505.769175626148 Rises=F Damp=F
 DIIS: error= 5.01D-01 at cycle   3 NSaved=   3.
 NSaved= 3 IEnMin= 2 EnMin= -3871.23117047182     IErMin= 2 ErrMin= 2.41D-01
 ErrMax= 5.01D-01  0.00D+00 EMaxC= 1.00D-01 BMatC= 6.09D+02 BMatP= 3.73D+01
 IDIUse=2 WtCom= 0.00D+00 WtEn= 1.00D+00
 EnCoef did   100 forward-backward iterations
 Coeff-En:   0.688D+00 0.206D-01 0.291D+00
 Coeff:      0.688D+00 0.206D-01 0.291D+00
 Gap=     0.152 Goal=   None    Shift=    0.000
 RMSDP=1.35D-01 MaxDP=3.45D+01 DE= 5.06D+02 OVMax= 9.65D-01

 Cycle   4  Pass 1  IDiag  1:
 RMSU=  1.02D-02    CP:  1.08D+00  6.18D-02  9.71D-02
 E= -3739.05347257113     Delta-E=     -373.591477725451 Rises=F Damp=F
 DIIS: error= 2.58D-01 at cycle   4 NSaved=   4.
 NSaved= 4 IEnMin= 2 EnMin= -3871.23117047182     IErMin= 2 ErrMin= 2.41D-01
 ErrMax= 2.58D-01  0.00D+00 EMaxC= 1.00D-01 BMatC= 2.05D+02 BMatP= 3.73D+01
 IDIUse=2 WtCom= 0.00D+00 WtEn= 1.00D+00
 EnCoef did   100 forward-backward iterations
 Coeff-En:   0.607D+00 0.855D-02 0.233D+00 0.152D+00
 Coeff:      0.607D+00 0.855D-02 0.233D+00 0.152D+00
 Gap=    -0.011 Goal=   None    Shift=    0.000
 RMSDP=1.57D-02 MaxDP=2.08D+00 DE=-3.74D+02 OVMax= 9.51D-01

 Cycle   5  Pass 1  IDiag  1:
 RMSU=  1.34D-02    CP:  1.09D+00  6.48D-02  8.54D-02  2.13D-01
 E= -3535.98388845198     Delta-E=      203.069584119145 Rises=F Damp=F
 DIIS: error= 2.50D-01 at cycle   5 NSaved=   5.
 NSaved= 5 IEnMin= 2 EnMin= -3871.23117047182     IErMin= 2 ErrMin= 2.41D-01
 ErrMax= 2.50D-01  0.00D+00 EMaxC= 1.00D-01 BMatC= 2.86D+02 BMatP= 3.73D+01
 IDIUse=2 WtCom= 0.00D+00 WtEn= 1.00D+00
 EnCoef did   100 forward-backward iterations
 Coeff-En:   0.515D+00 0.494D-02 0.145D+00 0.217D+00 0.117D+00
 Coeff:      0.515D+00 0.494D-02 0.145D+00 0.217D+00 0.117D+00
 Gap=     0.071 Goal=   None    Shift=    0.000
 RMSDP=1.63D-02 MaxDP=2.46D+00 DE= 2.03D+02 OVMax= 9.96D-01

 Cycle   6  Pass 1  IDiag  1:
 RMSU=  9.59D-03    CP:  1.00D+00  3.67D-02  4.13D-02  2.56D-01  1.54D-01
 E= -3641.80509215304     Delta-E=     -105.821203701056 Rises=F Damp=F
 DIIS: error= 2.00D-01 at cycle   6 NSaved=   6.
 NSaved= 6 IEnMin= 2 EnMin= -3871.23117047182     IErMin= 6 ErrMin= 2.00D-01
 ErrMax= 2.00D-01  0.00D+00 EMaxC= 1.00D-01 BMatC= 2.16D+02 BMatP= 3.73D+01
 IDIUse=2 WtCom= 0.00D+00 WtEn= 1.00D+00
 EnCoef did   100 forward-backward iterations
 Coeff-En:   0.343D+00 0.269D-02 0.428D-02 0.221D+00 0.239D+00 0.190D+00
 Coeff:      0.343D+00 0.269D-02 0.428D-02 0.221D+00 0.239D+00 0.190D+00
 Gap=     0.145 Goal=   None    Shift=    0.000
 RMSDP=1.64D-02 MaxDP=4.27D+00 DE=-1.06D+02 OVMax= 9.56D-01

 Cycle   7  Pass 1  IDiag  1:
 RMSU=  1.41D-02    CP:  9.67D-01  4.03D-02  6.10D-03  2.16D-01  1.98D-01
                    CP:  2.37D-01
 E= -3612.23808265987     Delta-E=       29.567009493167 Rises=F Damp=F
 DIIS: error= 2.46D-01 at cycle   7 NSaved=   7.
 NSaved= 7 IEnMin= 2 EnMin= -3871.23117047182     IErMin= 6 ErrMin= 2.00D-01
 ErrMax= 2.46D-01  0.00D+00 EMaxC= 1.00D-01 BMatC= 2.55D+02 BMatP= 3.73D+01
 IDIUse=2 WtCom= 0.00D+00 WtEn= 1.00D+00
 EnCoef did   100 forward-backward iterations
 Coeff-En:   0.335D+00 0.138D-02 0.220D-02 0.182D+00 0.213D+00 0.182D+00
 Coeff-En:   0.853D-01
 Coeff:      0.335D+00 0.138D-02 0.220D-02 0.182D+00 0.213D+00 0.182D+00
 Coeff:      0.853D-01
 Gap=     0.058 Goal=   None    Shift=    0.000
 RMSDP=1.40D-02 MaxDP=3.72D+00 DE= 2.96D+01 OVMax= 8.53D-01

 Cycle   8  Pass 1  IDiag  1:
 RMSU=  6.67D-03    CP:  9.37D-01  2.08D-02  1.44D-02  2.92D-01  1.61D-01
                    CP:  2.33D-01  1.57D-01
 E= -3708.26613413207     Delta-E=      -96.028051472196 Rises=F Damp=F
 DIIS: error= 2.15D-01 at cycle   8 NSaved=   8.
 NSaved= 8 IEnMin= 2 EnMin= -3871.23117047182     IErMin= 6 ErrMin= 2.00D-01
 ErrMax= 2.15D-01  0.00D+00 EMaxC= 1.00D-01 BMatC= 2.14D+02 BMatP= 3.73D+01
 IDIUse=2 WtCom= 0.00D+00 WtEn= 1.00D+00
 EnCoef did   100 forward-backward iterations
 Coeff-En:   0.329D+00 0.873D-03 0.139D-02 0.157D+00 0.199D+00 0.174D+00
 Coeff-En:   0.781D-01 0.605D-01
 Coeff:      0.329D+00 0.873D-03 0.139D-02 0.157D+00 0.199D+00 0.174D+00
 Coeff:      0.781D-01 0.605D-01
 Gap=     0.047 Goal=   None    Shift=    0.000
 RMSDP=8.32D-03 MaxDP=7.13D-01 DE=-9.60D+01 OVMax= 9.26D-01

 Cycle   9  Pass 1  IDiag  1:
 RMSU=  5.75D-03    CP:  9.36D-01  1.64D-02  1.68D-02  2.94D-01  1.40D-01
                    CP:  1.95D-01  1.06D-01  1.15D-01
 E= -3768.79911787756     Delta-E=      -60.532983745496 Rises=F Damp=F
 DIIS: error= 1.83D-01 at cycle   9 NSaved=   9.
 NSaved= 9 IEnMin= 2 EnMin= -3871.23117047182     IErMin= 9 ErrMin= 1.83D-01
 ErrMax= 1.83D-01  0.00D+00 EMaxC= 1.00D-01 BMatC= 1.59D+02 BMatP= 3.73D+01
 IDIUse=2 WtCom= 0.00D+00 WtEn= 1.00D+00
 EnCoef did   100 forward-backward iterations
 Coeff-En:   0.311D+00 0.601D-03 0.956D-03 0.113D+00 0.169D+00 0.154D+00
 Coeff-En:   0.411D-01 0.108D+00 0.102D+00
 Coeff:      0.311D+00 0.601D-03 0.956D-03 0.113D+00 0.169D+00 0.154D+00
 Coeff:      0.411D-01 0.108D+00 0.102D+00
 Gap=    -0.052 Goal=   None    Shift=    0.000
 RMSDP=7.34D-03 MaxDP=9.21D-01 DE=-6.05D+01 OVMax= 9.65D-01

 Cycle  10  Pass 1  IDiag  1:
 RMSU=  5.88D-03    CP:  9.45D-01  1.64D-02  1.88D-02  2.93D-01  1.56D-01
                    CP:  1.92D-01  8.27D-02  7.94D-02  2.42D-01
 E= -3807.35015919916     Delta-E=      -38.551041321600 Rises=F Damp=F
 DIIS: error= 1.40D-01 at cycle  10 NSaved=  10.
 NSaved=10 IEnMin= 2 EnMin= -3871.23117047182     IErMin=10 ErrMin= 1.40D-01
 ErrMax= 1.40D-01  0.00D+00 EMaxC= 1.00D-01 BMatC= 1.39D+02 BMatP= 3.73D+01
 IDIUse=2 WtCom= 0.00D+00 WtEn= 1.00D+00
 EnCoef did   100 forward-backward iterations
 Coeff-En:   0.282D+00 0.348D-03 0.553D-03 0.498D-01 0.956D-01 0.120D+00
 Coeff-En:   0.317D-02 0.148D+00 0.170D+00 0.130D+00
 Coeff:      0.282D+00 0.348D-03 0.553D-03 0.498D-01 0.956D-01 0.120D+00
 Coeff:      0.317D-02 0.148D+00 0.170D+00 0.130D+00
 Gap=     0.042 Goal=   None    Shift=    0.000
 RMSDP=8.07D-03 MaxDP=7.72D-01 DE=-3.86D+01 OVMax= 9.33D-01

 Cycle  11  Pass 1  IDiag  1:
 RMSU=  6.41D-03    CP:  9.54D-01  1.57D-02  2.07D-02  2.90D-01  1.22D-01
                    CP:  1.59D-01  1.81D-02  3.87D-02  1.80D-01  1.92D-01
 E= -3728.62116175559     Delta-E=       78.728997443577 Rises=F Damp=F
 DIIS: error= 1.50D-01 at cycle  11 NSaved=  11.
 NSaved=11 IEnMin= 2 EnMin= -3871.23117047182     IErMin=10 ErrMin= 1.40D-01
 ErrMax= 1.50D-01  0.00D+00 EMaxC= 1.00D-01 BMatC= 1.92D+02 BMatP= 3.73D+01
 IDIUse=2 WtCom= 0.00D+00 WtEn= 1.00D+00
 EnCoef did   100 forward-backward iterations
 Coeff-En:   0.227D+00 0.171D-03 0.272D-03 0.466D-02 0.355D-01 0.810D-01
 Coeff-En:   0.156D-02 0.157D+00 0.208D+00 0.189D+00 0.959D-01
 Coeff:      0.227D+00 0.171D-03 0.272D-03 0.466D-02 0.355D-01 0.810D-01
 Coeff:      0.156D-02 0.157D+00 0.208D+00 0.189D+00 0.959D-01
 Gap=    -0.107 Goal=   None    Shift=    0.000
 RMSDP=7.79D-03 MaxDP=6.14D-01 DE= 7.87D+01 OVMax= 9.68D-01

 Cycle  12  Pass 1  IDiag  1:
 RMSU=  5.58D-03    CP:  9.42D-01  1.17D-02  1.76D-02  2.48D-01  1.55D-01
                    CP:  1.64D-01 -2.63D-02  1.69D-01  2.04D-01  1.74D-01
                    CP:  1.83D-01
 E= -3782.59077455060     Delta-E=      -53.969612795016 Rises=F Damp=F
 DIIS: error= 1.48D-01 at cycle  12 NSaved=  12.
 NSaved=12 IEnMin= 2 EnMin= -3871.23117047182     IErMin=10 ErrMin= 1.40D-01
 ErrMax= 1.48D-01  0.00D+00 EMaxC= 1.00D-01 BMatC= 1.49D+02 BMatP= 3.73D+01
 IDIUse=2 WtCom= 0.00D+00 WtEn= 1.00D+00
 EnCoef did   100 forward-backward iterations
 Coeff-En:   0.192D+00 0.946D-04 0.151D-03 0.258D-02 0.369D-02 0.532D-01
 Coeff-En:   0.863D-03 0.153D+00 0.216D+00 0.200D+00 0.102D+00 0.768D-01
 Coeff:      0.192D+00 0.946D-04 0.151D-03 0.258D-02 0.369D-02 0.532D-01
 Coeff:      0.863D-03 0.153D+00 0.216D+00 0.200D+00 0.102D+00 0.768D-01
 Gap=    -0.019 Goal=   None    Shift=    0.000
 RMSDP=7.38D-03 MaxDP=7.75D-01 DE=-5.40D+01 OVMax= 8.70D-01

 Cycle  13  Pass 1  IDiag  1:
 RMSU=  4.98D-03    CP:  9.25D-01  7.84D-03  9.76D-03  2.27D-01  8.71D-02
                    CP:  1.96D-01  2.33D-02  1.68D-01  2.30D-01  1.68D-01
                    CP:  1.56D-01  6.88D-02
 E= -3770.04631721509     Delta-E=       12.544457335513 Rises=F Damp=F
 DIIS: error= 1.38D-01 at cycle  13 NSaved=  13.
 NSaved=13 IEnMin= 2 EnMin= -3871.23117047182     IErMin=13 ErrMin= 1.38D-01
 ErrMax= 1.38D-01  0.00D+00 EMaxC= 1.00D-01 BMatC= 1.45D+02 BMatP= 3.73D+01
 IDIUse=2 WtCom= 0.00D+00 WtEn= 1.00D+00
 EnCoef did   100 forward-backward iterations
 Coeff-En:   0.174D+00 0.583D-04 0.928D-04 0.159D-02 0.227D-02 0.365D-01
 Coeff-En:   0.532D-03 0.146D+00 0.207D+00 0.194D+00 0.879D-01 0.944D-01
 Coeff-En:   0.554D-01
 Coeff:      0.174D+00 0.583D-04 0.928D-04 0.159D-02 0.227D-02 0.365D-01
 Coeff:      0.532D-03 0.146D+00 0.207D+00 0.194D+00 0.879D-01 0.944D-01
 Coeff:      0.554D-01
 Gap=     0.000 Goal=   None    Shift=    0.000
 RMSDP=6.37D-03 MaxDP=5.42D-01 DE= 1.25D+01 OVMax= 9.08D-01

 Cycle  14  Pass 1  IDiag  1:
 RMSU=  4.55D-03    CP:  9.24D-01  7.30D-03  6.93D-03  2.54D-01  6.81D-02
                    CP:  1.92D-01  5.04D-02  2.38D-01  1.79D-01  1.75D-01
                    CP:  1.81D-01  6.99D-02  1.20D-01
 E= -3833.68417225901     Delta-E=      -63.637855043926 Rises=F Damp=F
 DIIS: error= 1.31D-01 at cycle  14 NSaved=  14.
 NSaved=14 IEnMin= 2 EnMin= -3871.23117047182     IErMin=14 ErrMin= 1.31D-01
 ErrMax= 1.31D-01  0.00D+00 EMaxC= 1.00D-01 BMatC= 1.15D+02 BMatP= 3.73D+01
 IDIUse=2 WtCom= 0.00D+00 WtEn= 1.00D+00
 EnCoef did   100 forward-backward iterations
 Coeff-En:   0.155D+00 0.404D-04 0.643D-04 0.110D-02 0.158D-02 0.345D-04
 Coeff-En:   0.369D-03 0.119D+00 0.196D+00 0.190D+00 0.668D-01 0.101D+00
 Coeff-En:   0.846D-01 0.858D-01
 Coeff:      0.155D+00 0.404D-04 0.643D-04 0.110D-02 0.158D-02 0.345D-04
 Coeff:      0.369D-03 0.119D+00 0.196D+00 0.190D+00 0.668D-01 0.101D+00
 Coeff:      0.846D-01 0.858D-01
 Gap=    -0.014 Goal=   None    Shift=    0.000
 RMSDP=6.67D-03 MaxDP=5.73D-01 DE=-6.36D+01 OVMax= 9.56D-01

 Cycle  15  Pass 1  IDiag  1:
 RMSU=  5.07D-03    CP:  9.20D-01  8.03D-03  8.35D-03  2.40D-01  6.89D-02
                    CP:  2.38D-01  8.83D-02  2.42D-01  1.69D-01  2.35D-01
                    CP:  1.45D-01  7.28D-02  2.47D-02  7.03D-02
 E= -3791.44710193682     Delta-E=       42.237070322197 Rises=F Damp=F
 DIIS: error= 1.91D-01 at cycle  15 NSaved=  15.
 NSaved=15 IEnMin= 2 EnMin= -3871.23117047182     IErMin=14 ErrMin= 1.31D-01
 ErrMax= 1.91D-01  0.00D+00 EMaxC= 1.00D-01 BMatC= 1.68D+02 BMatP= 3.73D+01
 IDIUse=2 WtCom= 0.00D+00 WtEn= 1.00D+00
 EnCoef did   100 forward-backward iterations
 Coeff-En:   0.141D+00 0.316D-04 0.502D-04 0.861D-03 0.123D-02 0.270D-04
 Coeff-En:   0.288D-03 0.103D+00 0.187D+00 0.179D+00 0.583D-01 0.105D+00
 Coeff-En:   0.846D-01 0.959D-01 0.438D-01
 Coeff:      0.141D+00 0.316D-04 0.502D-04 0.861D-03 0.123D-02 0.270D-04
 Coeff:      0.288D-03 0.103D+00 0.187D+00 0.179D+00 0.583D-01 0.105D+00
 Coeff:      0.846D-01 0.959D-01 0.438D-01
 Gap=    -0.011 Goal=   None    Shift=    0.000
 RMSDP=6.66D-03 MaxDP=5.10D-01 DE= 4.22D+01 OVMax= 8.03D-01

 Cycle  16  Pass 1  IDiag  1:
 RMSU=  4.34D-03    CP:  9.25D-01  7.03D-03  6.23D-03  1.96D-01  1.34D-01
                    CP:  5.08D-02  6.20D-02  2.68D-01  2.82D-01  2.25D-01
                    CP:  2.15D-01  1.77D-01  7.68D-02  8.53D-02  1.17D-01
 E= -3875.05084227789     Delta-E=      -83.603740341070 Rises=F Damp=F
 DIIS: error= 1.51D-01 at cycle  16 NSaved=  16.
 NSaved=16 IEnMin=16 EnMin= -3875.05084227789     IErMin=14 ErrMin= 1.31D-01
 ErrMax= 1.51D-01  0.00D+00 EMaxC= 1.00D-01 BMatC= 9.33D+01 BMatP= 3.73D+01
 IDIUse=2 WtCom= 0.00D+00 WtEn= 1.00D+00
 EnCoef did    13 forward-backward iterations
 Coeff-En:   0.910D-01 0.000D+00 0.000D+00 0.405D-03 0.000D+00 0.000D+00
 Coeff-En:   0.000D+00 0.826D-02 0.131D+00 0.129D+00 0.000D+00 0.666D-01
 Coeff-En:   0.921D-01 0.198D+00 0.997D-01 0.184D+00
 Coeff:      0.910D-01 0.000D+00 0.000D+00 0.405D-03 0.000D+00 0.000D+00
 Coeff:      0.000D+00 0.826D-02 0.131D+00 0.129D+00 0.000D+00 0.666D-01
 Coeff:      0.921D-01 0.198D+00 0.997D-01 0.184D+00
 Gap=     0.005 Goal=   None    Shift=    0.000
 RMSDP=6.77D-03 MaxDP=5.34D-01 DE=-8.36D+01 OVMax= 8.63D-01

 Cycle  17  Pass 1  IDiag  1:
 RMSU=  4.85D-03    CP:  9.17D-01  7.95D-03  5.52D-03  3.22D-01  6.16D-02
                    CP:  6.77D-02  8.33D-02  2.87D-01  2.05D-01  2.36D-01
                    CP:  6.86D-02  1.73D-01  6.25D-02  2.99D-02  1.58D-01
                    CP:  1.29D-02
 E= -3825.41891120143     Delta-E=       49.631931076459 Rises=F Damp=F
 DIIS: error= 1.86D-01 at cycle  17 NSaved=  17.
 NSaved=17 IEnMin=16 EnMin= -3875.05084227789     IErMin=14 ErrMin= 1.31D-01
 ErrMax= 1.86D-01  0.00D+00 EMaxC= 1.00D-01 BMatC= 1.53D+02 BMatP= 3.73D+01
 IDIUse=2 WtCom= 0.00D+00 WtEn= 1.00D+00
 EnCoef did   100 forward-backward iterations
 Coeff-En:   0.788D-01 0.000D+00 0.000D+00 0.261D-03 0.000D+00 0.000D+00
 Coeff-En:   0.000D+00 0.533D-02 0.124D+00 0.114D+00 0.000D+00 0.554D-01
 Coeff-En:   0.884D-01 0.199D+00 0.860D-01 0.193D+00 0.555D-01
 Coeff:      0.788D-01 0.000D+00 0.000D+00 0.261D-03 0.000D+00 0.000D+00
 Coeff:      0.000D+00 0.533D-02 0.124D+00 0.114D+00 0.000D+00 0.554D-01
 Coeff:      0.884D-01 0.199D+00 0.860D-01 0.193D+00 0.555D-01
 Gap=    -0.020 Goal=   None    Shift=    0.000
 RMSDP=5.91D-03 MaxDP=5.26D-01 DE= 4.96D+01 OVMax= 8.35D-01

 Cycle  18  Pass 1  IDiag  1:
 RMSU=  3.69D-03    CP:  9.28D-01  5.26D-03  6.66D-03  2.29D-01  5.34D-02
                    CP:  1.36D-01  3.60D-02  1.30D-01  2.89D-01  2.62D-01
                    CP:  3.49D-02  2.17D-01  1.52D-01  1.59D-01  1.94D-01
                    CP:  7.57D-02  1.45D-01
 E= -3917.30303674948     Delta-E=      -91.884125548055 Rises=F Damp=F
 DIIS: error= 1.27D-01 at cycle  18 NSaved=  18.
 NSaved=18 IEnMin=18 EnMin= -3917.30303674948     IErMin=18 ErrMin= 1.27D-01
 ErrMax= 1.27D-01  0.00D+00 EMaxC= 1.00D-01 BMatC= 5.42D+01 BMatP= 3.73D+01
 IDIUse=2 WtCom= 0.00D+00 WtEn= 1.00D+00
 EnCoef did   100 forward-backward iterations
[...]
 Alpha  occ. eigenvalues --   -0.45413  -0.45362  -0.45308  -0.45239  -0.45228
 Alpha  occ. eigenvalues --   -0.44913  -0.44326  -0.44143  -0.44132  -0.44110
 Alpha  occ. eigenvalues --   -0.43320  -0.43308  -0.42399  -0.42336  -0.42325
 Alpha  occ. eigenvalues --   -0.42213  -0.42209  -0.41893  -0.41869  -0.41701
 Alpha  occ. eigenvalues --   -0.41584  -0.40998  -0.40991  -0.40830  -0.40828
 Alpha  occ. eigenvalues --   -0.40621  -0.40600  -0.40586  -0.40353  -0.40291
 Alpha  occ. eigenvalues --   -0.40182  -0.40169  -0.39840  -0.39819  -0.39404
 Alpha  occ. eigenvalues --   -0.39398  -0.39385  -0.39256  -0.39196  -0.39126
 Alpha  occ. eigenvalues --   -0.39119  -0.38376  -0.38168  -0.38159  -0.38068
 Alpha  occ. eigenvalues --   -0.38053  -0.37511  -0.37445  -0.37435  -0.37316
 Alpha  occ. eigenvalues --   -0.37207  -0.37200  -0.37124  -0.37119  -0.36987
 Alpha  occ. eigenvalues --   -0.36639  -0.36525  -0.36401  -0.36395  -0.36238
 Alpha  occ. eigenvalues --   -0.36231  -0.36128  -0.36062  -0.35573  -0.35569
 Alpha  occ. eigenvalues --   -0.35149  -0.35133  -0.34998  -0.34992  -0.34547
 Alpha  occ. eigenvalues --   -0.34435  -0.34431  -0.34306  -0.34300  -0.34236
 Alpha  occ. eigenvalues --   -0.33937  -0.33778  -0.33772  -0.33735  -0.33499
 Alpha  occ. eigenvalues --   -0.33344  -0.33336  -0.33316  -0.33309  -0.32889
 Alpha  occ. eigenvalues --   -0.32845  -0.32775  -0.32764  -0.32658  -0.32620
 Alpha  occ. eigenvalues --   -0.32606  -0.32453  -0.32403  -0.32396  -0.32115
 Alpha  occ. eigenvalues --   -0.32056  -0.32028  -0.32010  -0.31808  -0.31615
 Alpha  occ. eigenvalues --   -0.31612  -0.31371  -0.31365  -0.31281  -0.31274
 Alpha  occ. eigenvalues --   -0.31157  -0.31151  -0.31047  -0.31014  -0.31009
 Alpha  occ. eigenvalues --   -0.30912  -0.30741  -0.30720  -0.30705  -0.30698
 Alpha  occ. eigenvalues --   -0.30660  -0.30641  -0.30170  -0.30163  -0.29915
 Alpha  occ. eigenvalues --   -0.29840  -0.29767  -0.29672  -0.29567  -0.29536
 Alpha  occ. eigenvalues --   -0.29525  -0.29447  -0.29370  -0.29244  -0.29235
 Alpha  occ. eigenvalues --   -0.29194  -0.29184  -0.28981  -0.28968  -0.28729
 Alpha  occ. eigenvalues --   -0.28727  -0.28693  -0.28686  -0.28669  -0.28661
 Alpha  occ. eigenvalues --   -0.28453  -0.28331  -0.28151  -0.28149  -0.28094
 Alpha  occ. eigenvalues --   -0.28082  -0.28026  -0.28025  -0.27971  -0.27950
 Alpha  occ. eigenvalues --   -0.27603  -0.27405  -0.27390  -0.27279  -0.27184
 Alpha  occ. eigenvalues --   -0.27101  -0.27083  -0.27058  -0.26945  -0.26923
 Alpha  occ. eigenvalues --   -0.26654  -0.26602  -0.26596  -0.26245  -0.26076
 Alpha  occ. eigenvalues --   -0.25913  -0.25906  -0.25596  -0.25583  -0.25528
 Alpha  occ. eigenvalues --   -0.23926  -0.23918  -0.23788  -0.23772  -0.23061
 Alpha virt. eigenvalues --   -0.20806  -0.19083  -0.19076  -0.18938  -0.18692
 Alpha virt. eigenvalues --   -0.18518  -0.18503  -0.18439  -0.18432  -0.18369
 Alpha virt. eigenvalues --   -0.18350  -0.18259  -0.17833  -0.17476  -0.17460
 Alpha virt. eigenvalues --   -0.17305  -0.17280  -0.16973  -0.16792  -0.13375
 Alpha virt. eigenvalues --   -0.12935  -0.12751  -0.12740  -0.12545  -0.12534
 Alpha virt. eigenvalues --   -0.11243  -0.11241  -0.10842  -0.10589  -0.10509
 Alpha virt. eigenvalues --   -0.10498  -0.10309  -0.10152  -0.09884  -0.09871
 Alpha virt. eigenvalues --   -0.09770  -0.09751  -0.09473  -0.09453  -0.09385
 Alpha virt. eigenvalues --   -0.09346  -0.09199  -0.09181  -0.09001  -0.08992
 Alpha virt. eigenvalues --   -0.08984  -0.08922  -0.08914  -0.08890  -0.08761
 Alpha virt. eigenvalues --   -0.08728  -0.08710  -0.08701  -0.08691  -0.08660
 Alpha virt. eigenvalues --   -0.07890  -0.07874  -0.07861  -0.07822  -0.07640
 Alpha virt. eigenvalues --   -0.07602  -0.04578  -0.04561  -0.04098  -0.04089
 Alpha virt. eigenvalues --   -0.04045  -0.03984  -0.03962  -0.03402   0.02392
 Alpha virt. eigenvalues --    0.03470   0.03480   0.03672   0.03807   0.04251
 Alpha virt. eigenvalues --    0.04265   0.04503   0.04510   0.04962   0.05394
 Alpha virt. eigenvalues --    0.05405   0.05528   0.06536   0.06541   0.06600
 Alpha virt. eigenvalues --    0.06815   0.06817   0.07577   0.08112   0.08115
 Alpha virt. eigenvalues --    0.08433   0.08443   0.08529   0.09023   0.09023
 Alpha virt. eigenvalues --    0.09355   0.09597   0.09668   0.09679   0.10347
 Alpha virt. eigenvalues --    0.10358   0.10567   0.10571   0.10925   0.11012
 Alpha virt. eigenvalues --    0.12021   0.12030   0.12788   0.13200   0.13390
 Alpha virt. eigenvalues --    0.13675   0.13684   0.14026   0.14459   0.14479
 Alpha virt. eigenvalues --    0.14740   0.15009   0.15039   0.15045   0.16559
 Alpha virt. eigenvalues --    0.16813   0.16817   0.17221   0.17228   0.17316
 Alpha virt. eigenvalues --    0.18214   0.18260   0.18767   0.18777   0.18816
 Alpha virt. eigenvalues --    0.19205   0.19211   0.19733   0.19734   0.19765
 Alpha virt. eigenvalues --    0.19771   0.20452   0.20483   0.20493   0.21372
 Alpha virt. eigenvalues --    0.21385   0.21823   0.22005   0.22047   0.22406
 Alpha virt. eigenvalues --    0.22414   0.22613   0.22628   0.23139   0.23214
 Alpha virt. eigenvalues --    0.23231   0.24000   0.24095   0.24121   0.24180
 Alpha virt. eigenvalues --    0.24813   0.24998   0.25000   0.25333   0.25343
 Alpha virt. eigenvalues --    0.25377   0.25387   0.25825   0.25893   0.25901
 Alpha virt. eigenvalues --    0.27084   0.27314   0.27325   0.28103   0.28111
 Alpha virt. eigenvalues --    0.28202   0.28508   0.28837   0.29214   0.29575
 Alpha virt. eigenvalues --    0.29582   0.29857   0.29870   0.29880   0.30312
 Alpha virt. eigenvalues --    0.30314   0.31127   0.31624   0.31686   0.31697
 Alpha virt. eigenvalues --    0.32141   0.32327   0.32346   0.32556   0.32641
 Alpha virt. eigenvalues --    0.32660   0.32693   0.33121   0.33251   0.33258
 Alpha virt. eigenvalues --    0.33980   0.34112   0.34116   0.34126   0.34204
 Alpha virt. eigenvalues --    0.34230   0.34369   0.34387   0.34971   0.34986
 Alpha virt. eigenvalues --    0.35010   0.35036   0.35608   0.36808   0.37042
 Alpha virt. eigenvalues --    0.37185   0.37280   0.37289   0.37349   0.37545
 Alpha virt. eigenvalues --    0.37567   0.37827   0.37833   0.38041   0.38051
 Alpha virt. eigenvalues --    0.38249   0.38324   0.38927   0.38943   0.39318
 Alpha virt. eigenvalues --    0.39329   0.39553   0.39568   0.40480   0.40490
 Alpha virt. eigenvalues --    0.40732   0.40840   0.41211   0.41219   0.41237
 Alpha virt. eigenvalues --    0.41525   0.41548   0.41772   0.42002   0.42012
 Alpha virt. eigenvalues --    0.42474   0.42484   0.43432   0.43587   0.43657
 Alpha virt. eigenvalues --    0.43719   0.43726   0.44571   0.44580   0.44660
 Alpha virt. eigenvalues --    0.45379   0.45410   0.45572   0.46310   0.46328
 Alpha virt. eigenvalues --    0.46365   0.47027   0.47546   0.47637   0.47659
 Alpha virt. eigenvalues --    0.48402   0.48635   0.48646   0.48676   0.48733
 Alpha virt. eigenvalues --    0.48759   0.50557   0.50569   0.50587   0.50605
 Alpha virt. eigenvalues --    0.51001   0.51104   0.51404   0.52290   0.52426
 Alpha virt. eigenvalues --    0.52432   0.52481   0.52493   0.53640   0.54089
 Alpha virt. eigenvalues --    0.54760   0.54771   0.55148   0.56108   0.56127
 Alpha virt. eigenvalues --    0.56192   0.56519   0.56583   0.56656   0.56667
 Alpha virt. eigenvalues --    0.56978   0.57018   0.57173   0.57178   0.57820
 Alpha virt. eigenvalues --    0.57827   0.58651   0.59100   0.59272   0.59281
 Alpha virt. eigenvalues --    0.59641   0.59649   0.59830   0.59847   0.60682
 Alpha virt. eigenvalues --    0.61251   0.61270   0.61425   0.61476   0.63245
 Alpha virt. eigenvalues --    0.63264   0.63288   0.63297   0.63323   0.63422
 Alpha virt. eigenvalues --    0.63974   0.64005   0.64035   0.64323   0.64333
 Alpha virt. eigenvalues --    0.64898   0.64926   0.67968   0.68007   0.68255
 Alpha virt. eigenvalues --    0.68392   0.68400   0.68531   0.69481   0.69549
 Alpha virt. eigenvalues --    0.69578   0.71042   0.71062   0.71882   0.72013
 Alpha virt. eigenvalues --    0.72031   0.72699   0.73596   0.73622   0.74304
 Alpha virt. eigenvalues --    0.74955   0.74978   0.75202   0.75230   0.76433
 Alpha virt. eigenvalues --    0.76710   0.76727   0.77343   0.78360   0.78404
 Alpha virt. eigenvalues --    0.79121   0.79210   0.79489   0.79501   0.79641
 Alpha virt. eigenvalues --    0.79653   0.80712   0.80728   0.80825   0.80832
 Alpha virt. eigenvalues --    0.81621   0.82645   0.83438   0.83968   0.84023
 Alpha virt. eigenvalues --    0.84435   0.84740   0.84942   0.84966   0.87279
 Alpha virt. eigenvalues --    0.87352   0.87494   0.88565   0.88609   0.89043
 Alpha virt. eigenvalues --    0.89445   0.89474   0.89782   0.89982   0.89999
 Alpha virt. eigenvalues --    0.90927   0.91247   0.92110   0.92463   0.92487
 Alpha virt. eigenvalues --    0.92718   0.92748   0.93265   0.93308   0.93753
 Alpha virt. eigenvalues --    0.93772   0.95311   0.95380   0.95668   0.95901
 Alpha virt. eigenvalues --    0.95915   0.97338   0.97441   0.97619   0.97671
 Alpha virt. eigenvalues --    0.97801   0.97836   0.98863   0.99426   0.99455
 Alpha virt. eigenvalues --    1.00176   1.00242   1.00485   1.00527   1.00820
 Alpha virt. eigenvalues --    1.00843   1.02873   1.02954   1.03467   1.03481
 Alpha virt. eigenvalues --    1.03510   1.04431   1.05220   1.05228   1.05241
 Alpha virt. eigenvalues --    1.05445   1.05469   1.06153   1.06206   1.06357
 Alpha virt. eigenvalues --    1.06677   1.06892   1.06930   1.06954   1.06974
 Alpha virt. eigenvalues --    1.08018   1.08048   1.08093   1.09371   1.09391
 Alpha virt. eigenvalues --    1.09429   1.09453   1.09690   1.11150   1.11355
 Alpha virt. eigenvalues --    1.12351   1.12378   1.13111   1.14553   1.14587
 Alpha virt. eigenvalues --    1.14774   1.14870   1.14897   1.14956   1.15136
 Alpha virt. eigenvalues --    1.16343   1.16375   1.16388   1.16417   1.16667
 Alpha virt. eigenvalues --    1.18497   1.18514   1.18792   1.21059   1.21074
 Alpha virt. eigenvalues --    1.21632   1.21657   1.22998   1.23363   1.24446
 Alpha virt. eigenvalues --    1.24459   1.24587   1.24601   1.25982   1.26512
 Alpha virt. eigenvalues --    1.26881   1.26899   1.29692   1.29739   1.31016
 Alpha virt. eigenvalues --    1.31056   1.31943   1.32449   1.32462   1.32491
 Alpha virt. eigenvalues --    1.33085   1.33452   1.33480   1.33873   1.34288
 Alpha virt. eigenvalues --    1.34373   1.36598   1.36656   1.36699   1.37642
 Alpha virt. eigenvalues --    1.37667   1.39647   1.41739   1.41775   1.48100
 Alpha virt. eigenvalues --    1.50546   1.54774   1.54786   1.57919   1.57945
 Alpha virt. eigenvalues --    1.59531   1.59550   1.59570   1.60525   1.60571
 Alpha virt. eigenvalues --    1.60848   1.62233   1.62838   1.63006   1.63278
 Alpha virt. eigenvalues --    1.63303   1.63667   1.63698   1.64361   1.65901
 Alpha virt. eigenvalues --    1.66517   1.66556   1.67250   1.67297   1.70065
 Alpha virt. eigenvalues --    1.70182   1.70222   1.70298   1.71210   1.71727
 Alpha virt. eigenvalues --    1.71760   1.73803   1.74326   1.74372   1.74779
 Alpha virt. eigenvalues --    1.74787   1.74801   1.76448   1.76478   1.77494
 Alpha virt. eigenvalues --    1.77590   1.77628   1.79300   1.79688   1.79712
 Alpha virt. eigenvalues --    1.79965   1.80288   1.80579   1.80596   1.81133
 Alpha virt. eigenvalues --    1.81141   1.81524   1.81533   1.81944   1.81970
 Alpha virt. eigenvalues --    1.82001   1.82195   1.82623   1.82648   1.83014
 Alpha virt. eigenvalues --    1.83051   1.83266   1.83416   1.83433   1.83714
 Alpha virt. eigenvalues --    1.84174   1.84191   1.84289   1.84316   1.84388
 Alpha virt. eigenvalues --    1.84535   1.84573   1.84581   1.84967   1.84987
 Alpha virt. eigenvalues --    1.85072   1.85544   1.86147   1.86168   1.87017
 Alpha virt. eigenvalues --    1.87507   1.87527   1.87629   1.87666   1.88710
 Alpha virt. eigenvalues --    1.90558   1.90734   1.91285   1.91304   1.91576
 Alpha virt. eigenvalues --    1.91607   1.91772   1.91821   1.93044   1.93900
 Alpha virt. eigenvalues --    1.93912   1.94337   1.94356   1.94528   1.94540
 Alpha virt. eigenvalues --    1.95025   1.95960   1.96090   1.96115   1.96754
 Alpha virt. eigenvalues --    1.96818   1.96863   1.96938   1.97744   1.97769
 Alpha virt. eigenvalues --    1.99391   1.99674   1.99694   1.99854   2.00974
 Alpha virt. eigenvalues --    2.01035   2.01056   2.03554   2.03608   2.04414
 Alpha virt. eigenvalues --    2.04885   2.04926   2.05247   2.06340   2.06348
 Alpha virt. eigenvalues --    2.08475   2.08534   2.11948   2.13569   2.13659
 Alpha virt. eigenvalues --    2.13862   2.15864   2.15950   2.16334   2.16408
 Alpha virt. eigenvalues --    2.17154   2.17208   2.17924   2.20508   2.21419
 Alpha virt. eigenvalues --    2.22571   2.23591   2.23934   2.23971   2.24315
 Alpha virt. eigenvalues --    2.24325   2.24602   2.24715   2.24765   2.25356
 Alpha virt. eigenvalues --    2.25364   2.28786   2.29210   2.32074   2.33168
 Alpha virt. eigenvalues --    2.34127   2.34150   2.34434   2.34509   2.35999
 Alpha virt. eigenvalues --    2.37298   2.38285   2.38319   2.38822   2.38904
 Alpha virt. eigenvalues --    2.42312   2.42371   2.44208   2.44300   2.46831
 Alpha virt. eigenvalues --    2.46974   2.51358   2.51443   2.51867   2.55273
 Alpha virt. eigenvalues --    2.55661   2.55695   2.60528   2.60613   2.62368
 Alpha virt. eigenvalues --    2.62379   2.64891   2.64906   2.65209   2.67706
 Alpha virt. eigenvalues --    2.67785   2.68070   2.68080   2.68704   2.68724
 Alpha virt. eigenvalues --    2.69009   2.69034   2.69516   2.69606   2.70353
 Alpha virt. eigenvalues --    2.71195   2.76115   2.76134   2.76928   2.77007
 Alpha virt. eigenvalues --    2.78872   4.22460   4.36158   4.36286   4.37117
 Alpha virt. eigenvalues --    4.54473   4.54873   4.57283   4.57501   4.60566
 Alpha virt. eigenvalues --    4.62233   4.62563   4.78432   4.78711   4.80863
 Alpha virt. eigenvalues --    4.87096   4.88448   4.88756   5.01000   5.20067
 Alpha virt. eigenvalues --    5.25089   5.25313   5.44678   5.44976   5.57995
 Alpha virt. eigenvalues --    5.58828   5.75543   6.50204   6.50516   6.64641
 Alpha virt. eigenvalues --    6.64877   6.91543   6.92038   7.62113   7.65364
 Alpha virt. eigenvalues --    8.21031   8.21545   8.27170   8.66492  32.44481
 Alpha virt. eigenvalues --   35.14714  35.19496  35.89544  35.92069  36.40792
 Alpha virt. eigenvalues --   37.57147  37.60765  37.78269  37.87354  38.23050
 Alpha virt. eigenvalues --   38.89158  43.13933  43.16534  43.25471  43.72189
 Alpha virt. eigenvalues --   46.53625  46.55932  52.46621  53.67231  53.69590
 Alpha virt. eigenvalues --   55.24553  55.24846  69.85429  72.18073
          Condensed to atoms (all electrons):
 Mulliken charges:
               1
     1  Fe   2.528141
     2  Fe   0.477036
     3  Fe   0.475679
     4  Fe   0.359199
     5  Fe   0.359457
     6  Fe   0.477492
     7  Fe   0.477107
     8  Fe   0.476236
     9  Fe   0.354139
    10  Fe   0.476703
    11  Fe   0.473287
    12  Fe   0.363095
    13  Fe   0.476594
    14  Fe   0.363557
    15  Fe   0.476082
    16  Fe   0.477846
    17  Fe   0.476766
    18  Fe   0.476755
    19  Fe   0.355067
    20  Ni   0.619064
    21  Ni   0.619566
    22  Ni   0.620692
    23  Ni   0.616792
    24  Ni   0.618056
    25  Ni   0.617989
    26  O   -0.145855
    27  O   -0.635093
    28  O   -0.634450
    29  O   -0.637788
    30  O   -0.563379
    31  O   -0.354983
    32  O   -0.353606
    33  O   -0.200938
    34  O   -0.199360
    35  O   -0.354408
    36  O   -0.561679
    37  O   -0.352867
    38  O   -0.198208
    39  O   -0.200816
    40  O   -0.353023
    41  O   -0.355184
    42  O   -0.561177
    43  O   -0.198187
    44  O   -0.199954
    45  O   -0.635662
    46  O   -0.634754
    47  O   -0.633879
    48  O   -0.145978
    49  O   -0.200341
    50  O   -0.196900
    51  O   -0.355144
    52  O   -0.353436
    53  O   -0.560778
    54  O   -0.198981
    55  O   -0.200074
    56  O   -0.354001
    57  O   -0.560746
    58  O   -0.354310
    59  O   -0.197965
    60  O   -0.200270
    61  O   -0.560559
    62  O   -0.353470
    63  O   -0.354192
 Sum of Mulliken charges =   0.00000
 Mulliken charges with hydrogens summed into heavy atoms:
               1
     1  Fe   2.528141
     2  Fe   0.477036
     3  Fe   0.475679
     4  Fe   0.359199
     5  Fe   0.359457
     6  Fe   0.477492
     7  Fe   0.477107
     8  Fe   0.476236
     9  Fe   0.354139
    10  Fe   0.476703
    11  Fe   0.473287
    12  Fe   0.363095
    13  Fe   0.476594
    14  Fe   0.363557
    15  Fe   0.476082
    16  Fe   0.477846
    17  Fe   0.476766
    18  Fe   0.476755
    19  Fe   0.355067
    20  Ni   0.619064
    21  Ni   0.619566
    22  Ni   0.620692
    23  Ni   0.616792
    24  Ni   0.618056
    25  Ni   0.617989
    26  O   -0.145855
    27  O   -0.635093
    28  O   -0.634450
    29  O   -0.637788
    30  O   -0.563379
    31  O   -0.354983
    32  O   -0.353606
    33  O   -0.200938
    34  O   -0.199360
    35  O   -0.354408
    36  O   -0.561679
    37  O   -0.352867
    38  O   -0.198208
    39  O   -0.200816
    40  O   -0.353023
    41  O   -0.355184
    42  O   -0.561177
    43  O   -0.198187
    44  O   -0.199954
    45  O   -0.635662
    46  O   -0.634754
    47  O   -0.633879
    48  O   -0.145978
    49  O   -0.200341
    50  O   -0.196900
    51  O   -0.355144
    52  O   -0.353436
    53  O   -0.560778
    54  O   -0.198981
    55  O   -0.200074
    56  O   -0.354001
    57  O   -0.560746
    58  O   -0.354310
    59  O   -0.197965
    60  O   -0.200270
    61  O   -0.560559
    62  O   -0.353470
    63  O   -0.354192
 Electronic spatial extent (au):  <R**2>=          42002.9095
 Charge=              0.0000 electrons
 Dipole moment (field-independent basis, Debye):
    X=              0.0164    Y=              0.0408    Z=              0.0312  Tot=              0.0539
 Quadrupole moment (field-independent basis, Debye-Ang):
   XX=           -431.5504   YY=           -431.7289   ZZ=           -611.5255
   XY=              0.0545   XZ=             -0.0083   YZ=             -0.2571
 Traceless Quadrupole moment (field-independent basis, Debye-Ang):
   XX=             60.0512   YY=             59.8727   ZZ=           -119.9239
   XY=              0.0545   XZ=             -0.0083   YZ=             -0.2571
 Octapole moment (field-independent basis, Debye-Ang**2):
  XXX=              1.0068  YYY=              1.1279  ZZZ=              0.4540  XYY=             -0.1414
  XXY=              1.3273  XXZ=              0.3324  XZZ=             -0.2999  YZZ=              0.6724
  YYZ=             -0.0435  XYZ=             -0.2769
 Hexadecapole moment (field-independent basis, Debye-Ang**3):
 XXXX=         -18174.6301 YYYY=         -18174.0215 ZZZZ=         -19235.9793 XXXY=              4.0738
 XXXZ=            135.9378 YYYX=             -1.5278 YYYZ=          -1638.3057 ZZZX=             -0.9879
 ZZZY=             -2.2221 XXYY=          -6064.1094 XXZZ=          -5204.4880 YYZZ=          -5207.2316
 XXYZ=           1627.9052 YYXZ=           -132.4928 ZZXY=             -0.8811
 N-N= 2.169128593540D+04 E-N=-5.273615302298D+04  KE= 2.426133407769D+03
 No NMR shielding tensors so no spin-rotation constants.
 Leave Link  601 at Sat Oct 18 23:22:53 2025, MaxMem=  6442450944 cpu:               5.0 elap:               0.4
 (Enter /opt/modules/software/gaussian/G16-C01/l602.exe)
 FitSet:  NAtFit=    63 NAtPot=    63 NAtFrz=     0 MDM=    67 TotChg=   0.00000
 Merz-Kollman atomic radii used.
 GetVDW:  no radius for atom   1 atomic number  26.
 Error termination via Lnk1e in /opt/modules/software/gaussian/G16-C01/l602.exe at Sat Oct 18 23:22:53 2025.
 Job cpu time:      24 days 20 hours 28 minutes 18.8 seconds.
 Elapsed time:       1 days 13 hours 18 minutes 59.5 seconds.
 File lengths (MBytes):  RWF=   2164 Int=      0 D2E=      0 Chk=     28 Scr=      1
