 Entering Gaussian System, Link 0=g16
 Input=charges-hirshfeld.com
 Output=charges-hirshfeld.log
 Initial command:
 /opt/modules/software/gaussian/G16-C01/l1.exe "/home/futera/Documents/2025-nife2o4-params/parametrization/Gau-2940376.inp" -scrdir="/home/futera/Documents/2025-nife2o4-params/parametrization/"
 Entering Link 1 = /opt/modules/software/gaussian/G16-C01/l1.exe PID=   2940377.
  
 Copyright (c) 1988-2019, Gaussian, Inc.  All Rights Reserved.
  
 This is part of the Gaussian(R) 16 program.  It is based on
 the Gaussian(R) 09 system (copyright 2009, Gaussian, Inc.),
 the Gaussian(R) 03 system (copyright 2003, Gaussian, Inc.),
 the Gaussian(R) 98 system (copyright 1998, Gaussian, Inc.),
 the Gaussian(R) 94 system (copyright 1995, Gaussian, Inc.),
 the Gaussian 92(TM) system (copyright 1992, Gaussian, Inc.),
 the Gaussian 90(TM) system (copyright 1990, Gaussian, Inc.),
 the Gaussian 88(TM) system (copyright 1988, Gaussian, Inc.),
 the Gaussian 86(TM) system (copyright 1986, Carnegie Mellon
 University), and the Gaussian 82(TM) system (copyright 1983,
 Carnegie Mellon University). Gaussian is a federally registered
 trademark of Gaussian, Inc.
  
 This software contains proprietary and confidential information,
 including trade secrets, belonging to Gaussian, Inc.
  
 This software is provided under written license and may be
 used, copied, transmitted, or stored only in accord with that
 written license.
  
 The following legend is applicable only to US Government
 contracts under FAR:
  
                    RESTRICTED RIGHTS LEGEND
  
 Use, reproduction and disclosure by the US Government is
 subject to restrictions as set forth in subparagraphs (a)
 and (c) of the Commercial Computer Software - Restricted
 Rights clause in FAR 52.227-19.
  
 Gaussian, Inc.
 340 Quinnipiac St., Bldg. 40, Wallingford CT 06492
  
  
 ---------------------------------------------------------------
 Warning -- This program may not be used in any manner that
 competes with the business of Gaussian, Inc. or will provide
 assistance to any competitor of Gaussian, Inc.  The licensee
 of this program is prohibited from giving any competitor of
 Gaussian, Inc. access to this program.  By using this program,
 the user acknowledges that Gaussian, Inc. is engaged in the
 business of creating and licensing software in the field of
 computational chemistry and represents and warrants to the
 licensee that it is not a competitor of Gaussian, Inc. and that
 it will not use this program in any manner prohibited above.
 ---------------------------------------------------------------
  

 Cite this work as:
 Gaussian 16, Revision C.01,
 M. J. Frisch, G. W. Trucks, H. B. Schlegel, G. E. Scuseria, 
 M. A. Robb, J. R. Cheeseman, G. Scalmani, V. Barone, 
 G. A. Petersson, H. Nakatsuji, X. Li, M. Caricato, A. V. Marenich, 
 J. Bloino, B. G. Janesko, R. Gomperts, B. Mennucci, H. P. Hratchian, 
 J. V. Ortiz, A. F. Izmaylov, J. L. Sonnenberg, D. Williams-Young, 
 F. Ding, F. Lipparini, F. Egidi, J. Goings, B. Peng, A. Petrone, 
 T. Henderson, D. Ranasinghe, V. G. Zakrzewski, J. Gao, N. Rega, 
 G. Zheng, W. Liang, M. Hada, M. Ehara, K. Toyota, R. Fukuda, 
 J. Hasegawa, M. Ishida, T. Nakajima, Y. Honda, O. Kitao, H. Nakai, 
 T. Vreven, K. Throssell, J. A. Montgomery, Jr., J. E. Peralta, 
 F. Ogliaro, M. J. Bearpark, J. J. Heyd, E. N. Brothers, K. N. Kudin, 
 V. N. Staroverov, T. A. Keith, R. Kobayashi, J. Normand, 
 K. Raghavachari, A. P. Rendell, J. C. Burant, S. S. Iyengar, 
 J. Tomasi, M. Cossi, J. M. Millam, M. Klene, C. Adamo, R. Cammi, 
 J. W. Ochterski, R. L. Martin, K. Morokuma, O. Farkas, 
 J. B. Foresman, and D. J. Fox, Gaussian, Inc., Wallingford CT, 2019.
 
 ******************************************
 Gaussian 16:  ES64L-G16RevC.01  3-Jul-2019
                12-Oct-2025 
 ******************************************
 %mem=32GB
 %nproc=8
 Will use up to    8 processors via shared memory.
 %chk=charges-hirshfeld.chk
 ------------------------------------------------------
 #p PBE1PBE/GenECP SCF(Tight,QC,Restart) Pop(Hirshfeld)
 ------------------------------------------------------
 1/38=1,172=1/1;
 2/12=2,17=6,18=5,40=1/2;
 3/5=7,11=2,16=1,17=8,25=1,30=1,74=-13,116=-2/1,2,3;
 4/5=7,6=200000000/1;
 5/5=2,8=3,32=2,38=6/8;
 6/7=2,8=2,9=2,10=2,28=1,79=1/1;
 99/5=1,9=1/99;
 Leave Link    1 at Sun Oct 12 09:05:56 2025, MaxMem=  4294967296 cpu:               0.1 elap:               0.0
 (Enter /opt/modules/software/gaussian/G16-C01/l101.exe)
 -----------------------------
 Nickel ferrate (PBE0/LANL2DZ)
 -----------------------------
 Symbolic Z-matrix:
 Charge =  0 Multiplicity = 1
 Fe                    14.5      15.19     14.9 
 Fe                    10.       12.6      14.9 
 Fe                    13.       14.33     19.79 
 Fe                    13.       17.79     14.9 
 Fe                    16.       12.6      14.9 
 Fe                    16.       16.06     10. 
 Fe                    18.99     17.79     14.9 
 Fe                    10.       14.33     12.45 
 Fe                    13.       16.06     17.34 
 Fe                    13.       19.52     12.45 
 Fe                    16.       10.87     17.34 
 Fe                    16.       14.33     12.45 
 Fe                    18.99     16.06     17.34 
 Fe                    11.5      15.19     14.9 
 Fe                    14.5      16.92     19.79 
 Fe                    14.5      20.39     14.9 
 Fe                    14.5      10.       14.9 
 Fe                    14.5      13.46     10. 
 Fe                    17.5      15.19     14.9 
 Ni                    13.       12.6      16.73 
 Ni                    13.       16.06     11.84 
 Ni                    16.       17.79     16.73 
 Ni                    13.       12.6      13.06 
 Ni                    16.       14.33     17.96 
 Ni                    16.       17.79     13.06 
 O                     11.61     16.86     16.08 
 O                     14.61     11.67     16.08 
 O                     14.61     15.13     11.18 
 O                     17.6      16.86     16.08 
 O                     13.       14.45     16.08 
 O                     13.       17.92     11.18 
 O                     16.       19.65     16.08 
 O                     16.       12.72     11.18 
 O                     18.99     14.45     16.08 
 O                     13.       12.6      18.7 
 O                     13.       16.06     13.81 
 O                     16.       17.79     18.7 
 O                     16.       10.87     13.81 
 O                     18.99     16.06     13.81 
 O                     11.39     11.67     16.08 
 O                     11.39     15.13     11.18 
 O                     14.39     16.86     16.08 
 O                     17.39     11.67     16.08 
 O                     17.39     15.13     11.18 
 O                     11.39     13.52     13.72 
 O                     14.39     15.26     18.61 
 O                     14.39     18.72     13.72 
 O                     17.39     13.52     13.72 
 O                     10.       15.93     13.72 
 O                     13.       17.66     18.61 
 O                     13.       10.74     13.72 
 O                     16.       12.47     18.61 
 O                     16.       15.93     13.72 
 O                     10.       14.33     15.99 
 O                     13.       19.52     15.99 
 O                     13.       12.6      11.09 
 O                     16.       14.33     15.99 
 O                     16.       17.79     11.09 
 O                     11.61     15.26     18.61 
 O                     11.61     18.72     13.72 
 O                     14.61     13.52     13.72 
 O                     17.6      15.26     18.61 
 O                     17.6      18.72     13.72 
 
 ITRead=  0  0  0  0  0  0  0  0  0  0  0  0  0  0  0  0  0  0  0  0
 ITRead=  0  0  0  0  0  0  0  0  0  0  0  0  0  0  0  0  0  0  0  0
 ITRead=  0  0  0  0  0  0  0  0  0  0  0  0  0  0  0  0  0  0  0  0
 ITRead=  0  0  0
 MicOpt= -1 -1 -1 -1 -1 -1 -1 -1 -1 -1 -1 -1 -1 -1 -1 -1 -1 -1 -1 -1
 MicOpt= -1 -1 -1 -1 -1 -1 -1 -1 -1 -1 -1 -1 -1 -1 -1 -1 -1 -1 -1 -1
 MicOpt= -1 -1 -1 -1 -1 -1 -1 -1 -1 -1 -1 -1 -1 -1 -1 -1 -1 -1 -1 -1
 MicOpt= -1 -1 -1
 NAtoms=     63 NQM=       63 NQMF=       0 NMMI=      0 NMMIF=      0
                NMic=       0 NMicF=      0.
                    Isotopes and Nuclear Properties:
 (Nuclear quadrupole moments (NQMom) in fm**2, nuclear magnetic moments (NMagM)
  in nuclear magnetons)

  Atom         1           2           3           4           5           6           7           8           9          10
 IAtWgt=          56          56          56          56          56          56          56          56          56          56
 AtmWgt=  55.9349393  55.9349393  55.9349393  55.9349393  55.9349393  55.9349393  55.9349393  55.9349393  55.9349393  55.9349393
 NucSpn=           0           0           0           0           0           0           0           0           0           0
 AtZEff=  -0.0000000  -0.0000000  -0.0000000  -0.0000000  -0.0000000  -0.0000000  -0.0000000  -0.0000000  -0.0000000  -0.0000000
 NQMom=    0.0000000   0.0000000   0.0000000   0.0000000   0.0000000   0.0000000   0.0000000   0.0000000   0.0000000   0.0000000
 NMagM=    0.0000000   0.0000000   0.0000000   0.0000000   0.0000000   0.0000000   0.0000000   0.0000000   0.0000000   0.0000000
 AtZNuc=  26.0000000  26.0000000  26.0000000  26.0000000  26.0000000  26.0000000  26.0000000  26.0000000  26.0000000  26.0000000

  Atom        11          12          13          14          15          16          17          18          19          20
 IAtWgt=          56          56          56          56          56          56          56          56          56          58
 AtmWgt=  55.9349393  55.9349393  55.9349393  55.9349393  55.9349393  55.9349393  55.9349393  55.9349393  55.9349393  57.9353471
 NucSpn=           0           0           0           0           0           0           0           0           0           0
 AtZEff=  -0.0000000  -0.0000000  -0.0000000  -0.0000000  -0.0000000  -0.0000000  -0.0000000  -0.0000000  -0.0000000  -0.0000000
 NQMom=    0.0000000   0.0000000   0.0000000   0.0000000   0.0000000   0.0000000   0.0000000   0.0000000   0.0000000   0.0000000
 NMagM=    0.0000000   0.0000000   0.0000000   0.0000000   0.0000000   0.0000000   0.0000000   0.0000000   0.0000000   0.0000000
 AtZNuc=  26.0000000  26.0000000  26.0000000  26.0000000  26.0000000  26.0000000  26.0000000  26.0000000  26.0000000  28.0000000

  Atom        21          22          23          24          25          26          27          28          29          30
 IAtWgt=          58          58          58          58          58          16          16          16          16          16
 AtmWgt=  57.9353471  57.9353471  57.9353471  57.9353471  57.9353471  15.9949146  15.9949146  15.9949146  15.9949146  15.9949146
 NucSpn=           0           0           0           0           0           0           0           0           0           0
 AtZEff=  -0.0000000  -0.0000000  -0.0000000  -0.0000000  -0.0000000  -0.0000000  -0.0000000  -0.0000000  -0.0000000  -0.0000000
 NQMom=    0.0000000   0.0000000   0.0000000   0.0000000   0.0000000   0.0000000   0.0000000   0.0000000   0.0000000   0.0000000
 NMagM=    0.0000000   0.0000000   0.0000000   0.0000000   0.0000000   0.0000000   0.0000000   0.0000000   0.0000000   0.0000000
 AtZNuc=  28.0000000  28.0000000  28.0000000  28.0000000  28.0000000   8.0000000   8.0000000   8.0000000   8.0000000   8.0000000

  Atom        31          32          33          34          35          36          37          38          39          40
 IAtWgt=          16          16          16          16          16          16          16          16          16          16
 AtmWgt=  15.9949146  15.9949146  15.9949146  15.9949146  15.9949146  15.9949146  15.9949146  15.9949146  15.9949146  15.9949146
 NucSpn=           0           0           0           0           0           0           0           0           0           0
 AtZEff=  -0.0000000  -0.0000000  -0.0000000  -0.0000000  -0.0000000  -0.0000000  -0.0000000  -0.0000000  -0.0000000  -0.0000000
 NQMom=    0.0000000   0.0000000   0.0000000   0.0000000   0.0000000   0.0000000   0.0000000   0.0000000   0.0000000   0.0000000
 NMagM=    0.0000000   0.0000000   0.0000000   0.0000000   0.0000000   0.0000000   0.0000000   0.0000000   0.0000000   0.0000000
 AtZNuc=   8.0000000   8.0000000   8.0000000   8.0000000   8.0000000   8.0000000   8.0000000   8.0000000   8.0000000   8.0000000

  Atom        41          42          43          44          45          46          47          48          49          50
 IAtWgt=          16          16          16          16          16          16          16          16          16          16
 AtmWgt=  15.9949146  15.9949146  15.9949146  15.9949146  15.9949146  15.9949146  15.9949146  15.9949146  15.9949146  15.9949146
 NucSpn=           0           0           0           0           0           0           0           0           0           0
 AtZEff=  -0.0000000  -0.0000000  -0.0000000  -0.0000000  -0.0000000  -0.0000000  -0.0000000  -0.0000000  -0.0000000  -0.0000000
 NQMom=    0.0000000   0.0000000   0.0000000   0.0000000   0.0000000   0.0000000   0.0000000   0.0000000   0.0000000   0.0000000
 NMagM=    0.0000000   0.0000000   0.0000000   0.0000000   0.0000000   0.0000000   0.0000000   0.0000000   0.0000000   0.0000000
 AtZNuc=   8.0000000   8.0000000   8.0000000   8.0000000   8.0000000   8.0000000   8.0000000   8.0000000   8.0000000   8.0000000

  Atom        51          52          53          54          55          56          57          58          59          60
 IAtWgt=          16          16          16          16          16          16          16          16          16          16
 AtmWgt=  15.9949146  15.9949146  15.9949146  15.9949146  15.9949146  15.9949146  15.9949146  15.9949146  15.9949146  15.9949146
 NucSpn=           0           0           0           0           0           0           0           0           0           0
 AtZEff=  -0.0000000  -0.0000000  -0.0000000  -0.0000000  -0.0000000  -0.0000000  -0.0000000  -0.0000000  -0.0000000  -0.0000000
 NQMom=    0.0000000   0.0000000   0.0000000   0.0000000   0.0000000   0.0000000   0.0000000   0.0000000   0.0000000   0.0000000
 NMagM=    0.0000000   0.0000000   0.0000000   0.0000000   0.0000000   0.0000000   0.0000000   0.0000000   0.0000000   0.0000000
 AtZNuc=   8.0000000   8.0000000   8.0000000   8.0000000   8.0000000   8.0000000   8.0000000   8.0000000   8.0000000   8.0000000

  Atom        61          62          63
 IAtWgt=          16          16          16
 AtmWgt=  15.9949146  15.9949146  15.9949146
 NucSpn=           0           0           0
 AtZEff=  -0.0000000  -0.0000000  -0.0000000
 NQMom=    0.0000000   0.0000000   0.0000000
 NMagM=    0.0000000   0.0000000   0.0000000
 AtZNuc=   8.0000000   8.0000000   8.0000000
 Leave Link  101 at Sun Oct 12 09:05:56 2025, MaxMem=  4294967296 cpu:               0.8 elap:               0.1
 (Enter /opt/modules/software/gaussian/G16-C01/l202.exe)
 Stoichiometry    Fe19Ni6O38
 Framework group  C1[X(Fe19Ni6O38)]
 Deg. of freedom   183
 Full point group                 C1      NOp   1
 Largest Abelian subgroup         C1      NOp   1
 Largest concise Abelian subgroup C1      NOp   1
                         Standard orientation:                         
 ---------------------------------------------------------------------
 Center     Atomic      Atomic             Coordinates (Angstroms)
 Number     Number       Type             X           Y           Z
 ---------------------------------------------------------------------
      1         26           0       -0.002927   -0.003199   -0.001747
      2         26           0       -4.470899    0.983185    2.452305
      3         26           0       -1.611031   -4.282377    2.448628
      4         26           0        1.521645    0.823506    2.448200
      5         26           0       -1.518797   -0.828467   -2.446982
      6         26           0        1.614129    4.286840   -2.450745
      7         26           0        4.468827   -0.985126   -2.442922
      8         26           0       -2.904436    3.540839    2.450423
      9         26           0       -0.044569   -1.724723    2.446747
     10         26           0        3.088108    3.381159    2.446318
     11         26           0       -3.085011   -3.376696   -2.448435
     12         26           0        0.047666    1.729187   -2.448864
     13         26           0        2.902613   -3.533356   -2.444375
     14         26           0       -1.478978    0.902627    2.447896
     15         26           0        1.380890   -4.362935    2.444220
     16         26           0        4.522268    0.744385    2.448503
     17         26           0       -4.519420   -0.749346   -2.447285
     18         26           0       -1.386495    4.365961   -2.451049
     19         26           0        1.473124   -0.909025   -2.451390
     20         28           0       -3.040385   -1.647276    0.612956
     21         28           0        0.092291    3.458607    0.612528
     22         28           0        2.952159   -1.806955    0.608851
     23         28           0       -2.949062    1.811419   -0.610968
     24         28           0       -0.089443   -3.463567   -0.611310
     25         28           0        3.043482    1.651740   -0.615073
     26          8           0       -0.000935   -0.002557    3.538507
     27          8           0       -3.041377   -1.654530   -1.356675
     28          8           0        0.091548    3.460777   -1.360438
     29          8           0        2.946247   -1.811190   -1.352615
     30          8           0       -1.414285   -0.768733    1.267909
     31          8           0        1.727342    4.348012    1.268857
     32          8           0        4.586961   -0.926975    1.268515
     33          8           0       -1.321802    2.694601   -3.631036
     34          8           0        1.532897   -2.577366   -3.623213
     35          8           0       -3.089406   -3.503851    1.269940
     36          8           0        0.043271    1.602032    1.269511
     37          8           0        2.903138   -3.663530    1.265835
     38          8           0       -2.997171   -0.049940   -3.625670
     39          8           0        2.990453   -0.206600   -3.621610
     40          8           0       -4.625672   -0.682277    1.272609
     41          8           0       -1.492747    4.433030    1.268845
     42          8           0        1.366872   -0.841956    1.268504
     43          8           0       -1.673570   -2.493928   -3.626677
     44          8           0        1.459356    2.621378   -3.630441
     45          8           0       -2.957021    1.807811    1.357286
     46          8           0       -0.088451   -3.456314    1.358321
     47          8           0        3.044225    1.649569    1.357893
     48          8           0       -0.004919   -0.003841   -3.542001
     49          8           0       -1.543671    2.573987    3.627884
     50          8           0        1.316197   -2.691575    3.624207
     51          8           0       -4.584113    0.922014   -1.267297
     52          8           0       -1.724245   -4.343548   -1.270974
     53          8           0        1.408431    0.762335   -1.271403
     54          8           0       -2.992525    0.204659    3.630993
     55          8           0        3.000020    0.044980    3.626888
     56          8           0       -2.900041    3.667993   -1.267952
     57          8           0       -0.040422   -1.606993   -1.268293
     58          8           0        3.092503    3.508314   -1.272057
     59          8           0       -1.456258   -2.616915    3.628324
     60          8           0        1.676418    2.488968    3.627895
     61          8           0       -1.372726    0.835558   -1.271998
     62          8           0        1.490924   -4.425547   -1.262797
     63          8           0        4.623600    0.680335   -1.263226
 ---------------------------------------------------------------------
 Rotational constants (GHZ):           0.0219673           0.0219629           0.0190309
 Leave Link  202 at Sun Oct 12 09:05:56 2025, MaxMem=  4294967296 cpu:               0.0 elap:               0.0
 (Enter /opt/modules/software/gaussian/G16-C01/l301.exe)
 General basis read from cards:  (5D, 7F)
 Centers:      26     27     28     29     30     31     32     33     34     35
 Centers:      36     37     38     39     40     41     42     43     44     45
 Centers:      46     47     48     49     50     51     52     53     54     55
 Centers:      56     57     58     59     60     61     62     63
 S 7 1.00
     Exponent=  7.8170000000D+03 Coefficients=  1.1760000000D-03
     Exponent=  1.1760000000D+03 Coefficients=  8.9680000000D-03
     Exponent=  2.7320000000D+02 Coefficients=  4.2868000000D-02
     Exponent=  8.1170000000D+01 Coefficients=  1.4393000000D-01
     Exponent=  2.7180000000D+01 Coefficients=  3.5563000000D-01
     Exponent=  9.5320000000D+00 Coefficients=  4.6124800000D-01
     Exponent=  3.4140000000D+00 Coefficients=  1.4020600000D-01
 S 2 1.00
     Exponent=  9.5320000000D+00 Coefficients= -1.5415300000D-01
     Exponent=  9.3980000000D-01 Coefficients=  1.0569140000D+00
 S 1 1.00
     Exponent=  2.8460000000D-01 Coefficients=  1.0000000000D+00
 P 4 1.00
     Exponent=  3.5180000000D+01 Coefficients=  1.9580000000D-02
     Exponent=  7.9040000000D+00 Coefficients=  1.2420000000D-01
     Exponent=  2.3050000000D+00 Coefficients=  3.9471400000D-01
     Exponent=  7.1710000000D-01 Coefficients=  6.2737600000D-01
 P 1 1.00
     Exponent=  2.1370000000D-01 Coefficients=  1.0000000000D+00
 ****
 Centers:       1      2      3      4      5      6      7      8      9     10
 Centers:      11     12     13     14     15     16     17     18     19
 S 3 1.00
     Exponent=  6.4220000000D+00 Coefficients= -3.9278820000D-01
     Exponent=  1.8260000000D+00 Coefficients=  7.7126430000D-01
     Exponent=  7.1350000000D-01 Coefficients=  4.9202280000D-01
 S 4 1.00
     Exponent=  6.4220000000D+00 Coefficients=  1.7868770000D-01
     Exponent=  1.8260000000D+00 Coefficients= -4.1940320000D-01
     Exponent=  7.1350000000D-01 Coefficients= -4.5681850000D-01
     Exponent=  1.0210000000D-01 Coefficients=  1.1035048000D+00
 S 1 1.00
     Exponent=  3.6300000000D-02 Coefficients=  1.0000000000D+00
 P 3 1.00
     Exponent=  1.9480000000D+01 Coefficients= -4.7028200000D-02
     Exponent=  2.3890000000D+00 Coefficients=  6.2488410000D-01
     Exponent=  7.7950000000D-01 Coefficients=  4.7225420000D-01
 P 1 1.00
     Exponent=  7.4000000000D-02 Coefficients=  1.0000000000D+00
 P 1 1.00
     Exponent=  2.2000000000D-02 Coefficients=  1.0000000000D+00
 D 4 1.00
     Exponent=  3.7080000000D+01 Coefficients=  3.2900000000D-02
     Exponent=  1.0100000000D+01 Coefficients=  1.7874180000D-01
     Exponent=  3.2200000000D+00 Coefficients=  4.4876570000D-01
     Exponent=  9.6280000000D-01 Coefficients=  5.8763610000D-01
 D 1 1.00
     Exponent=  2.2620000000D-01 Coefficients=  1.0000000000D+00
 ****
 Centers:      20     21     22     23     24     25
 S 3 1.00
     Exponent=  7.6200000000D+00 Coefficients= -4.0825500000D-01
     Exponent=  2.2940000000D+00 Coefficients=  7.4553080000D-01
     Exponent=  8.7600000000D-01 Coefficients=  5.3257210000D-01
 S 4 1.00
     Exponent=  7.6200000000D+00 Coefficients=  1.8725910000D-01
     Exponent=  2.2940000000D+00 Coefficients= -3.9669640000D-01
     Exponent=  8.7600000000D-01 Coefficients= -4.9540030000D-01
     Exponent=  1.1530000000D-01 Coefficients=  1.0844343000D+00
 S 1 1.00
     Exponent=  3.9600000000D-02 Coefficients=  1.0000000000D+00
 P 3 1.00
     Exponent=  2.3660000000D+01 Coefficients= -4.8155800000D-02
     Exponent=  2.8930000000D+00 Coefficients=  6.2584730000D-01
     Exponent=  9.4350000000D-01 Coefficients=  4.7151580000D-01
 P 1 1.00
     Exponent=  8.4000000000D-02 Coefficients=  1.0000000000D+00
 P 1 1.00
     Exponent=  2.4000000000D-02 Coefficients=  1.0000000000D+00
 D 4 1.00
     Exponent=  4.2720000000D+01 Coefficients=  3.7269900000D-02
     Exponent=  1.1760000000D+01 Coefficients=  1.9561030000D-01
     Exponent=  3.8170000000D+00 Coefficients=  4.5612730000D-01
     Exponent=  1.1690000000D+00 Coefficients=  5.6215870000D-01
 D 1 1.00
     Exponent=  2.8360000000D-01 Coefficients=  1.0000000000D+00
 ****
 ======================================================================================================
                                       Pseudopotential Parameters
 ======================================================================================================
  Center     Atomic      Valence      Angular      Power
  Number     Number     Electrons     Momentum     of R      Exponent        Coefficient   SO-Coeffient
 ======================================================================================================
    1         26           16
                                      D and up 
                                                     1      392.6149787      -10.00000000    0.00000000
                                                     2       71.1756979      -63.26675180    0.00000000
                                                     2       17.7320281      -10.96133380    0.00000000
                                      S - D
                                                     0      126.0571895        3.00000000    0.00000000
                                                     1      138.1264251       18.17291370    0.00000000
                                                     2       54.2098858      339.12311640    0.00000000
                                                     2        9.2837966      317.10680120    0.00000000
                                                     2        8.6289082     -207.34216490    0.00000000
                                      P - D
                                                     0       83.1759490        5.00000000    0.00000000
                                                     1      106.0559938        5.95359300    0.00000000
                                                     2       42.8284937      294.26655270    0.00000000
                                                     2        8.7701805      154.42446350    0.00000000
                                                     2        8.0397818      -95.31642490    0.00000000
    2         26           16
                                      D and up 
                                                     1      392.6149787      -10.00000000    0.00000000
                                                     2       71.1756979      -63.26675180    0.00000000
                                                     2       17.7320281      -10.96133380    0.00000000
                                      S - D
                                                     0      126.0571895        3.00000000    0.00000000
                                                     1      138.1264251       18.17291370    0.00000000
                                                     2       54.2098858      339.12311640    0.00000000
                                                     2        9.2837966      317.10680120    0.00000000
                                                     2        8.6289082     -207.34216490    0.00000000
                                      P - D
                                                     0       83.1759490        5.00000000    0.00000000
                                                     1      106.0559938        5.95359300    0.00000000
                                                     2       42.8284937      294.26655270    0.00000000
                                                     2        8.7701805      154.42446350    0.00000000
                                                     2        8.0397818      -95.31642490    0.00000000
    3         26           16
                                      D and up 
                                                     1      392.6149787      -10.00000000    0.00000000
                                                     2       71.1756979      -63.26675180    0.00000000
                                                     2       17.7320281      -10.96133380    0.00000000
                                      S - D
                                                     0      126.0571895        3.00000000    0.00000000
                                                     1      138.1264251       18.17291370    0.00000000
                                                     2       54.2098858      339.12311640    0.00000000
                                                     2        9.2837966      317.10680120    0.00000000
                                                     2        8.6289082     -207.34216490    0.00000000
                                      P - D
                                                     0       83.1759490        5.00000000    0.00000000
                                                     1      106.0559938        5.95359300    0.00000000
                                                     2       42.8284937      294.26655270    0.00000000
                                                     2        8.7701805      154.42446350    0.00000000
                                                     2        8.0397818      -95.31642490    0.00000000
    4         26           16
                                      D and up 
                                                     1      392.6149787      -10.00000000    0.00000000
                                                     2       71.1756979      -63.26675180    0.00000000
                                                     2       17.7320281      -10.96133380    0.00000000
                                      S - D
                                                     0      126.0571895        3.00000000    0.00000000
                                                     1      138.1264251       18.17291370    0.00000000
                                                     2       54.2098858      339.12311640    0.00000000
                                                     2        9.2837966      317.10680120    0.00000000
                                                     2        8.6289082     -207.34216490    0.00000000
                                      P - D
                                                     0       83.1759490        5.00000000    0.00000000
                                                     1      106.0559938        5.95359300    0.00000000
                                                     2       42.8284937      294.26655270    0.00000000
                                                     2        8.7701805      154.42446350    0.00000000
                                                     2        8.0397818      -95.31642490    0.00000000
    5         26           16
                                      D and up 
                                                     1      392.6149787      -10.00000000    0.00000000
                                                     2       71.1756979      -63.26675180    0.00000000
                                                     2       17.7320281      -10.96133380    0.00000000
                                      S - D
                                                     0      126.0571895        3.00000000    0.00000000
                                                     1      138.1264251       18.17291370    0.00000000
                                                     2       54.2098858      339.12311640    0.00000000
                                                     2        9.2837966      317.10680120    0.00000000
                                                     2        8.6289082     -207.34216490    0.00000000
                                      P - D
                                                     0       83.1759490        5.00000000    0.00000000
                                                     1      106.0559938        5.95359300    0.00000000
                                                     2       42.8284937      294.26655270    0.00000000
                                                     2        8.7701805      154.42446350    0.00000000
                                                     2        8.0397818      -95.31642490    0.00000000
    6         26           16
                                      D and up 
                                                     1      392.6149787      -10.00000000    0.00000000
                                                     2       71.1756979      -63.26675180    0.00000000
                                                     2       17.7320281      -10.96133380    0.00000000
                                      S - D
                                                     0      126.0571895        3.00000000    0.00000000
                                                     1      138.1264251       18.17291370    0.00000000
                                                     2       54.2098858      339.12311640    0.00000000
                                                     2        9.2837966      317.10680120    0.00000000
                                                     2        8.6289082     -207.34216490    0.00000000
                                      P - D
                                                     0       83.1759490        5.00000000    0.00000000
                                                     1      106.0559938        5.95359300    0.00000000
                                                     2       42.8284937      294.26655270    0.00000000
                                                     2        8.7701805      154.42446350    0.00000000
                                                     2        8.0397818      -95.31642490    0.00000000
    7         26           16
                                      D and up 
                                                     1      392.6149787      -10.00000000    0.00000000
                                                     2       71.1756979      -63.26675180    0.00000000
                                                     2       17.7320281      -10.96133380    0.00000000
                                      S - D
                                                     0      126.0571895        3.00000000    0.00000000
                                                     1      138.1264251       18.17291370    0.00000000
                                                     2       54.2098858      339.12311640    0.00000000
                                                     2        9.2837966      317.10680120    0.00000000
                                                     2        8.6289082     -207.34216490    0.00000000
                                      P - D
                                                     0       83.1759490        5.00000000    0.00000000
                                                     1      106.0559938        5.95359300    0.00000000
                                                     2       42.8284937      294.26655270    0.00000000
                                                     2        8.7701805      154.42446350    0.00000000
                                                     2        8.0397818      -95.31642490    0.00000000
    8         26           16
                                      D and up 
                                                     1      392.6149787      -10.00000000    0.00000000
                                                     2       71.1756979      -63.26675180    0.00000000
                                                     2       17.7320281      -10.96133380    0.00000000
                                      S - D
                                                     0      126.0571895        3.00000000    0.00000000
                                                     1      138.1264251       18.17291370    0.00000000
                                                     2       54.2098858      339.12311640    0.00000000
                                                     2        9.2837966      317.10680120    0.00000000
                                                     2        8.6289082     -207.34216490    0.00000000
                                      P - D
                                                     0       83.1759490        5.00000000    0.00000000
                                                     1      106.0559938        5.95359300    0.00000000
                                                     2       42.8284937      294.26655270    0.00000000
                                                     2        8.7701805      154.42446350    0.00000000
                                                     2        8.0397818      -95.31642490    0.00000000
    9         26           16
                                      D and up 
                                                     1      392.6149787      -10.00000000    0.00000000
                                                     2       71.1756979      -63.26675180    0.00000000
                                                     2       17.7320281      -10.96133380    0.00000000
                                      S - D
                                                     0      126.0571895        3.00000000    0.00000000
                                                     1      138.1264251       18.17291370    0.00000000
                                                     2       54.2098858      339.12311640    0.00000000
                                                     2        9.2837966      317.10680120    0.00000000
                                                     2        8.6289082     -207.34216490    0.00000000
                                      P - D
                                                     0       83.1759490        5.00000000    0.00000000
                                                     1      106.0559938        5.95359300    0.00000000
                                                     2       42.8284937      294.26655270    0.00000000
                                                     2        8.7701805      154.42446350    0.00000000
                                                     2        8.0397818      -95.31642490    0.00000000
   10         26           16
                                      D and up 
                                                     1      392.6149787      -10.00000000    0.00000000
                                                     2       71.1756979      -63.26675180    0.00000000
                                                     2       17.7320281      -10.96133380    0.00000000
                                      S - D
                                                     0      126.0571895        3.00000000    0.00000000
                                                     1      138.1264251       18.17291370    0.00000000
                                                     2       54.2098858      339.12311640    0.00000000
                                                     2        9.2837966      317.10680120    0.00000000
                                                     2        8.6289082     -207.34216490    0.00000000
                                      P - D
                                                     0       83.1759490        5.00000000    0.00000000
                                                     1      106.0559938        5.95359300    0.00000000
                                                     2       42.8284937      294.26655270    0.00000000
                                                     2        8.7701805      154.42446350    0.00000000
                                                     2        8.0397818      -95.31642490    0.00000000
   11         26           16
                                      D and up 
                                                     1      392.6149787      -10.00000000    0.00000000
                                                     2       71.1756979      -63.26675180    0.00000000
                                                     2       17.7320281      -10.96133380    0.00000000
                                      S - D
                                                     0      126.0571895        3.00000000    0.00000000
                                                     1      138.1264251       18.17291370    0.00000000
                                                     2       54.2098858      339.12311640    0.00000000
                                                     2        9.2837966      317.10680120    0.00000000
                                                     2        8.6289082     -207.34216490    0.00000000
                                      P - D
                                                     0       83.1759490        5.00000000    0.00000000
                                                     1      106.0559938        5.95359300    0.00000000
                                                     2       42.8284937      294.26655270    0.00000000
                                                     2        8.7701805      154.42446350    0.00000000
                                                     2        8.0397818      -95.31642490    0.00000000
   12         26           16
                                      D and up 
                                                     1      392.6149787      -10.00000000    0.00000000
                                                     2       71.1756979      -63.26675180    0.00000000
                                                     2       17.7320281      -10.96133380    0.00000000
                                      S - D
                                                     0      126.0571895        3.00000000    0.00000000
                                                     1      138.1264251       18.17291370    0.00000000
                                                     2       54.2098858      339.12311640    0.00000000
                                                     2        9.2837966      317.10680120    0.00000000
                                                     2        8.6289082     -207.34216490    0.00000000
                                      P - D
                                                     0       83.1759490        5.00000000    0.00000000
                                                     1      106.0559938        5.95359300    0.00000000
                                                     2       42.8284937      294.26655270    0.00000000
                                                     2        8.7701805      154.42446350    0.00000000
                                                     2        8.0397818      -95.31642490    0.00000000
   13         26           16
                                      D and up 
                                                     1      392.6149787      -10.00000000    0.00000000
                                                     2       71.1756979      -63.26675180    0.00000000
                                                     2       17.7320281      -10.96133380    0.00000000
                                      S - D
                                                     0      126.0571895        3.00000000    0.00000000
                                                     1      138.1264251       18.17291370    0.00000000
                                                     2       54.2098858      339.12311640    0.00000000
                                                     2        9.2837966      317.10680120    0.00000000
                                                     2        8.6289082     -207.34216490    0.00000000
                                      P - D
                                                     0       83.1759490        5.00000000    0.00000000
                                                     1      106.0559938        5.95359300    0.00000000
                                                     2       42.8284937      294.26655270    0.00000000
                                                     2        8.7701805      154.42446350    0.00000000
                                                     2        8.0397818      -95.31642490    0.00000000
   14         26           16
                                      D and up 
                                                     1      392.6149787      -10.00000000    0.00000000
                                                     2       71.1756979      -63.26675180    0.00000000
                                                     2       17.7320281      -10.96133380    0.00000000
                                      S - D
                                                     0      126.0571895        3.00000000    0.00000000
                                                     1      138.1264251       18.17291370    0.00000000
                                                     2       54.2098858      339.12311640    0.00000000
                                                     2        9.2837966      317.10680120    0.00000000
                                                     2        8.6289082     -207.34216490    0.00000000
                                      P - D
                                                     0       83.1759490        5.00000000    0.00000000
                                                     1      106.0559938        5.95359300    0.00000000
                                                     2       42.8284937      294.26655270    0.00000000
                                                     2        8.7701805      154.42446350    0.00000000
                                                     2        8.0397818      -95.31642490    0.00000000
   15         26           16
                                      D and up 
                                                     1      392.6149787      -10.00000000    0.00000000
                                                     2       71.1756979      -63.26675180    0.00000000
                                                     2       17.7320281      -10.96133380    0.00000000
                                      S - D
                                                     0      126.0571895        3.00000000    0.00000000
                                                     1      138.1264251       18.17291370    0.00000000
                                                     2       54.2098858      339.12311640    0.00000000
                                                     2        9.2837966      317.10680120    0.00000000
                                                     2        8.6289082     -207.34216490    0.00000000
                                      P - D
                                                     0       83.1759490        5.00000000    0.00000000
                                                     1      106.0559938        5.95359300    0.00000000
                                                     2       42.8284937      294.26655270    0.00000000
                                                     2        8.7701805      154.42446350    0.00000000
                                                     2        8.0397818      -95.31642490    0.00000000
   16         26           16
                                      D and up 
                                                     1      392.6149787      -10.00000000    0.00000000
                                                     2       71.1756979      -63.26675180    0.00000000
                                                     2       17.7320281      -10.96133380    0.00000000
                                      S - D
                                                     0      126.0571895        3.00000000    0.00000000
                                                     1      138.1264251       18.17291370    0.00000000
                                                     2       54.2098858      339.12311640    0.00000000
                                                     2        9.2837966      317.10680120    0.00000000
                                                     2        8.6289082     -207.34216490    0.00000000
                                      P - D
                                                     0       83.1759490        5.00000000    0.00000000
                                                     1      106.0559938        5.95359300    0.00000000
                                                     2       42.8284937      294.26655270    0.00000000
                                                     2        8.7701805      154.42446350    0.00000000
                                                     2        8.0397818      -95.31642490    0.00000000
   17         26           16
                                      D and up 
                                                     1      392.6149787      -10.00000000    0.00000000
                                                     2       71.1756979      -63.26675180    0.00000000
                                                     2       17.7320281      -10.96133380    0.00000000
                                      S - D
                                                     0      126.0571895        3.00000000    0.00000000
                                                     1      138.1264251       18.17291370    0.00000000
                                                     2       54.2098858      339.12311640    0.00000000
                                                     2        9.2837966      317.10680120    0.00000000
                                                     2        8.6289082     -207.34216490    0.00000000
                                      P - D
                                                     0       83.1759490        5.00000000    0.00000000
                                                     1      106.0559938        5.95359300    0.00000000
                                                     2       42.8284937      294.26655270    0.00000000
                                                     2        8.7701805      154.42446350    0.00000000
                                                     2        8.0397818      -95.31642490    0.00000000
   18         26           16
                                      D and up 
                                                     1      392.6149787      -10.00000000    0.00000000
                                                     2       71.1756979      -63.26675180    0.00000000
                                                     2       17.7320281      -10.96133380    0.00000000
                                      S - D
                                                     0      126.0571895        3.00000000    0.00000000
                                                     1      138.1264251       18.17291370    0.00000000
                                                     2       54.2098858      339.12311640    0.00000000
                                                     2        9.2837966      317.10680120    0.00000000
                                                     2        8.6289082     -207.34216490    0.00000000
                                      P - D
                                                     0       83.1759490        5.00000000    0.00000000
                                                     1      106.0559938        5.95359300    0.00000000
                                                     2       42.8284937      294.26655270    0.00000000
                                                     2        8.7701805      154.42446350    0.00000000
                                                     2        8.0397818      -95.31642490    0.00000000
   19         26           16
                                      D and up 
                                                     1      392.6149787      -10.00000000    0.00000000
                                                     2       71.1756979      -63.26675180    0.00000000
                                                     2       17.7320281      -10.96133380    0.00000000
                                      S - D
                                                     0      126.0571895        3.00000000    0.00000000
                                                     1      138.1264251       18.17291370    0.00000000
                                                     2       54.2098858      339.12311640    0.00000000
                                                     2        9.2837966      317.10680120    0.00000000
                                                     2        8.6289082     -207.34216490    0.00000000
                                      P - D
                                                     0       83.1759490        5.00000000    0.00000000
                                                     1      106.0559938        5.95359300    0.00000000
                                                     2       42.8284937      294.26655270    0.00000000
                                                     2        8.7701805      154.42446350    0.00000000
                                                     2        8.0397818      -95.31642490    0.00000000
   20         28           18
                                      D and up 
                                                     1      469.9324331      -10.00000000    0.00000000
                                                     2       85.4236411      -69.40848050    0.00000000
                                                     2       21.2674984      -12.09510200    0.00000000
                                      S - D
                                                     0      162.1686097        3.00000000    0.00000000
                                                     1      176.5333232       22.02536180    0.00000000
                                                     2       68.9562010      443.01810880    0.00000000
                                                     2       13.5792838      145.56964110    0.00000000
                                      P - D
                                                     0       69.0181506        5.00000000    0.00000000
                                                     1      275.5955596        4.98828240    0.00000000
                                                     2       47.1315453      256.69458530    0.00000000
                                                     2       12.9874075       78.47544500    0.00000000
   21         28           18
                                      D and up 
                                                     1      469.9324331      -10.00000000    0.00000000
                                                     2       85.4236411      -69.40848050    0.00000000
                                                     2       21.2674984      -12.09510200    0.00000000
                                      S - D
                                                     0      162.1686097        3.00000000    0.00000000
                                                     1      176.5333232       22.02536180    0.00000000
                                                     2       68.9562010      443.01810880    0.00000000
                                                     2       13.5792838      145.56964110    0.00000000
                                      P - D
                                                     0       69.0181506        5.00000000    0.00000000
                                                     1      275.5955596        4.98828240    0.00000000
                                                     2       47.1315453      256.69458530    0.00000000
                                                     2       12.9874075       78.47544500    0.00000000
   22         28           18
                                      D and up 
                                                     1      469.9324331      -10.00000000    0.00000000
                                                     2       85.4236411      -69.40848050    0.00000000
                                                     2       21.2674984      -12.09510200    0.00000000
                                      S - D
                                                     0      162.1686097        3.00000000    0.00000000
                                                     1      176.5333232       22.02536180    0.00000000
                                                     2       68.9562010      443.01810880    0.00000000
                                                     2       13.5792838      145.56964110    0.00000000
                                      P - D
                                                     0       69.0181506        5.00000000    0.00000000
                                                     1      275.5955596        4.98828240    0.00000000
                                                     2       47.1315453      256.69458530    0.00000000
                                                     2       12.9874075       78.47544500    0.00000000
   23         28           18
                                      D and up 
                                                     1      469.9324331      -10.00000000    0.00000000
                                                     2       85.4236411      -69.40848050    0.00000000
                                                     2       21.2674984      -12.09510200    0.00000000
                                      S - D
                                                     0      162.1686097        3.00000000    0.00000000
                                                     1      176.5333232       22.02536180    0.00000000
                                                     2       68.9562010      443.01810880    0.00000000
                                                     2       13.5792838      145.56964110    0.00000000
                                      P - D
                                                     0       69.0181506        5.00000000    0.00000000
                                                     1      275.5955596        4.98828240    0.00000000
                                                     2       47.1315453      256.69458530    0.00000000
                                                     2       12.9874075       78.47544500    0.00000000
   24         28           18
                                      D and up 
                                                     1      469.9324331      -10.00000000    0.00000000
                                                     2       85.4236411      -69.40848050    0.00000000
                                                     2       21.2674984      -12.09510200    0.00000000
                                      S - D
                                                     0      162.1686097        3.00000000    0.00000000
                                                     1      176.5333232       22.02536180    0.00000000
                                                     2       68.9562010      443.01810880    0.00000000
                                                     2       13.5792838      145.56964110    0.00000000
                                      P - D
                                                     0       69.0181506        5.00000000    0.00000000
                                                     1      275.5955596        4.98828240    0.00000000
                                                     2       47.1315453      256.69458530    0.00000000
                                                     2       12.9874075       78.47544500    0.00000000
   25         28           18
                                      D and up 
                                                     1      469.9324331      -10.00000000    0.00000000
                                                     2       85.4236411      -69.40848050    0.00000000
                                                     2       21.2674984      -12.09510200    0.00000000
                                      S - D
                                                     0      162.1686097        3.00000000    0.00000000
                                                     1      176.5333232       22.02536180    0.00000000
                                                     2       68.9562010      443.01810880    0.00000000
                                                     2       13.5792838      145.56964110    0.00000000
                                      P - D
                                                     0       69.0181506        5.00000000    0.00000000
                                                     1      275.5955596        4.98828240    0.00000000
                                                     2       47.1315453      256.69458530    0.00000000
                                                     2       12.9874075       78.47544500    0.00000000
   26          8
                                   No pseudopotential on this center.
   27          8
                                   No pseudopotential on this center.
   28          8
                                   No pseudopotential on this center.
   29          8
                                   No pseudopotential on this center.
   30          8
                                   No pseudopotential on this center.
   31          8
                                   No pseudopotential on this center.
   32          8
                                   No pseudopotential on this center.
   33          8
                                   No pseudopotential on this center.
   34          8
                                   No pseudopotential on this center.
   35          8
                                   No pseudopotential on this center.
   36          8
                                   No pseudopotential on this center.
   37          8
                                   No pseudopotential on this center.
   38          8
                                   No pseudopotential on this center.
   39          8
                                   No pseudopotential on this center.
   40          8
                                   No pseudopotential on this center.
   41          8
                                   No pseudopotential on this center.
   42          8
                                   No pseudopotential on this center.
   43          8
                                   No pseudopotential on this center.
   44          8
                                   No pseudopotential on this center.
   45          8
                                   No pseudopotential on this center.
   46          8
                                   No pseudopotential on this center.
   47          8
                                   No pseudopotential on this center.
   48          8
                                   No pseudopotential on this center.
   49          8
                                   No pseudopotential on this center.
   50          8
                                   No pseudopotential on this center.
   51          8
                                   No pseudopotential on this center.
   52          8
                                   No pseudopotential on this center.
   53          8
                                   No pseudopotential on this center.
   54          8
                                   No pseudopotential on this center.
   55          8
                                   No pseudopotential on this center.
   56          8
                                   No pseudopotential on this center.
   57          8
                                   No pseudopotential on this center.
   58          8
                                   No pseudopotential on this center.
   59          8
                                   No pseudopotential on this center.
   60          8
                                   No pseudopotential on this center.
   61          8
                                   No pseudopotential on this center.
   62          8
                                   No pseudopotential on this center.
   63          8
                                   No pseudopotential on this center.
 ======================================================================================================
 Ernie: Thresh=  0.10000D-02 Tol=  0.10000D-05 Strict=F.
 Ernie:  25 primitive shells out of 1020 were deleted.
 There are   942 symmetry adapted cartesian basis functions of A   symmetry.
 There are   892 symmetry adapted basis functions of A   symmetry.
   892 basis functions,  2250 primitive gaussians,   942 cartesian basis functions
   358 alpha electrons      358 beta electrons
       nuclear repulsion energy     27286.8140012580 Hartrees.
 IExCor= 1009 DFT=T Ex+Corr=PBE1PBE ExCW=0 ScaHFX=  0.250000
 ScaDFX=  0.750000  0.750000  1.000000  1.000000 ScalE2=  1.000000  1.000000
 IRadAn=      5 IRanWt=     -1 IRanGd=            0 ICorTp=0 IEmpDi=  4
 NAtoms=   63 NActive=   63 NUniq=   63 SFac= 1.00D+00 NAtFMM=   60 NAOKFM=T Big=T
 Integral buffers will be    131072 words long.
 Raffenetti 2 integral format.
 Two-electron integral symmetry is turned on.
 Leave Link  301 at Sun Oct 12 09:05:56 2025, MaxMem=  4294967296 cpu:               0.3 elap:               0.0
 (Enter /opt/modules/software/gaussian/G16-C01/l302.exe)
 NPDir=0 NMtPBC=     1 NCelOv=     1 NCel=       1 NClECP=     1 NCelD=      1
         NCelK=      1 NCelE2=     1 NClLst=     1 CellRange=     0.0.
 One-electron integrals computed using PRISM.
 One-electron integral symmetry used in STVInt
   1 Symmetry operations used in ECPInt.
 ECPInt:  NShTT=   76245 NPrTT=  496949 LenC2=   66727 LenP2D=  230763.
 LDataN:  DoStor=T MaxTD1= 4 Len=   56
 NBasis=   892 RedAO= T EigKep=  1.07D-05  NBF=   892
 NBsUse=   892 1.00D-06 EigRej= -1.00D+00 NBFU=   892
 Precomputing XC quadrature grid using
 IXCGrd= 4 IRadAn=           5 IRanWt=          -1 IRanGd=           0 AccXCQ= 0.00D+00.
 Generated NRdTot=       0 NPtTot=           0 NUsed=           0 NTot=          32
 NSgBfM=   942   940   940   940   942 MxSgAt=    63 MxSgA2=    63.
 Leave Link  302 at Sun Oct 12 09:06:00 2025, MaxMem=  4294967296 cpu:              37.5 elap:               4.7
 (Enter /opt/modules/software/gaussian/G16-C01/l303.exe)
 DipDrv:  MaxL=1.
 Leave Link  303 at Sun Oct 12 09:06:01 2025, MaxMem=  4294967296 cpu:               1.1 elap:               0.2
 (Enter /opt/modules/software/gaussian/G16-C01/l401.exe)
 SCF restart from the checkpoint file:  "charges-hirshfeld.chk"
 B after Tr=     0.000000    0.000000    0.000000
         Rot=    1.000000    0.000000    0.000000    0.000000 Ang=   0.00 deg.
 Guess basis will be translated and rotated to current coordinates.
 JPrj=0 DoOrth=F DoCkMO=F.
 Leave Link  401 at Sun Oct 12 09:06:01 2025, MaxMem=  4294967296 cpu:               0.7 elap:               0.1
 (Enter /opt/modules/software/gaussian/G16-C01/l508.exe)
 Integral symmetry usage will be decided dynamically.
 Tight linear equation convergence will be used.
 RPBE1PBE wavefunction.
 Quadratic Convergence SCF Method.
 Line search only if initial step raises energy.
 Fock matrices will be formed incrementally for  20 cycles.
 FoFJK:  IHMeth= 1 ICntrl=       0 DoSepK=F KAlg= 0 I1Cent=           0 FoldK=F
 IRaf= 990000000 NMat=       1 IRICut=       1 DoRegI=T DoRafI=F ISym2E= 1 IDoP0=0 IntGTp=1.
 FoFCou: FMM=T IPFlag=           0 FMFlag=      100000 FMFlg1=        2001
         NFxFlg=           0 DoJE=F BraDBF=F KetDBF=F FulRan=T
         wScrn=  0.000000 ICntrl=         0 IOpCl=  0 I1Cent=           0 NGrid=           0
         NMat0=    1 NMatS0=      1 NMatT0=    0 NMatD0=    1 NMtDS0=    0 NMtDT0=    0
 Petite list used in FoFCou.
 FMM levels:  10  Number of levels for PrismC:   9
 Iteration   1 EE= -6213.32820541544                                    Grad=6.012D-09 Max rot=    0.0000 deg.
 Rotation gradient small -- convergence achieved.
 SCF Done:  E(RPBE1PBE) =  -6213.32820542     a.u. after    1 cycles
            Convg  =    0.6012D-08                     1 Fock formations.
              S**2 =  0.0000                  -V/T =  2.2940
 Leave Link  508 at Sun Oct 12 09:08:31 2025, MaxMem=  4294967296 cpu:            1203.6 elap:             150.5
 (Enter /opt/modules/software/gaussian/G16-C01/l601.exe)
 Copying SCF densities to generalized density rwf, IOpCl= 0 IROHF=0.

 **********************************************************************

            Population analysis using the SCF Density.

 **********************************************************************

 Orbital symmetries:
       Occupied  (A) (A) (A) (A) (A) (A) (A) (A) (A) (A) (A) (A)
                 (A) (A) (A) (A) (A) (A) (A) (A) (A) (A) (A) (A)
                 (A) (A) (A) (A) (A) (A) (A) (A) (A) (A) (A) (A)
                 (A) (A) (A) (A) (A) (A) (A) (A) (A) (A) (A) (A)
                 (A) (A) (A) (A) (A) (A) (A) (A) (A) (A) (A) (A)
                 (A) (A) (A) (A) (A) (A) (A) (A) (A) (A) (A) (A)
                 (A) (A) (A) (A) (A) (A) (A) (A) (A) (A) (A) (A)
                 (A) (A) (A) (A) (A) (A) (A) (A) (A) (A) (A) (A)
                 (A) (A) (A) (A) (A) (A) (A) (A) (A) (A) (A) (A)
                 (A) (A) (A) (A) (A) (A) (A) (A) (A) (A) (A) (A)
                 (A) (A) (A) (A) (A) (A) (A) (A) (A) (A) (A) (A)
                 (A) (A) (A) (A) (A) (A) (A) (A) (A) (A) (A) (A)
                 (A) (A) (A) (A) (A) (A) (A) (A) (A) (A) (A) (A)
                 (A) (A) (A) (A) (A) (A) (A) (A) (A) (A) (A) (A)
                 (A) (A) (A) (A) (A) (A) (A) (A) (A) (A) (A) (A)
                 (A) (A) (A) (A) (A) (A) (A) (A) (A) (A) (A) (A)
                 (A) (A) (A) (A) (A) (A) (A) (A) (A) (A) (A) (A)
                 (A) (A) (A) (A) (A) (A) (A) (A) (A) (A) (A) (A)
                 (A) (A) (A) (A) (A) (A) (A) (A) (A) (A) (A) (A)
                 (A) (A) (A) (A) (A) (A) (A) (A) (A) (A) (A) (A)
                 (A) (A) (A) (A) (A) (A) (A) (A) (A) (A) (A) (A)
                 (A) (A) (A) (A) (A) (A) (A) (A) (A) (A) (A) (A)
                 (A) (A) (A) (A) (A) (A) (A) (A) (A) (A) (A) (A)
                 (A) (A) (A) (A) (A) (A) (A) (A) (A) (A) (A) (A)
                 (A) (A) (A) (A) (A) (A) (A) (A) (A) (A) (A) (A)
                 (A) (A) (A) (A) (A) (A) (A) (A) (A) (A) (A) (A)
                 (A) (A) (A) (A) (A) (A) (A) (A) (A) (A) (A) (A)
                 (A) (A) (A) (A) (A) (A) (A) (A) (A) (A) (A) (A)
                 (A) (A) (A) (A) (A) (A) (A) (A) (A) (A) (A) (A)
                 (A) (A) (A) (A) (A) (A) (A) (A) (A) (A)
       Virtual   (A) (A) (A) (A) (A) (A) (A) (A) (A) (A) (A) (A)
                 (A) (A) (A) (A) (A) (A) (A) (A) (A) (A) (A) (A)
                 (A) (A) (A) (A) (A) (A) (A) (A) (A) (A) (A) (A)
                 (A) (A) (A) (A) (A) (A) (A) (A) (A) (A) (A) (A)
                 (A) (A) (A) (A) (A) (A) (A) (A) (A) (A) (A) (A)
                 (A) (A) (A) (A) (A) (A) (A) (A) (A) (A) (A) (A)
                 (A) (A) (A) (A) (A) (A) (A) (A) (A) (A) (A) (A)
                 (A) (A) (A) (A) (A) (A) (A) (A) (A) (A) (A) (A)
                 (A) (A) (A) (A) (A) (A) (A) (A) (A) (A) (A) (A)
                 (A) (A) (A) (A) (A) (A) (A) (A) (A) (A) (A) (A)
                 (A) (A) (A) (A) (A) (A) (A) (A) (A) (A) (A) (A)
                 (A) (A) (A) (A) (A) (A) (A) (A) (A) (A) (A) (A)
                 (A) (A) (A) (A) (A) (A) (A) (A) (A) (A) (A) (A)
                 (A) (A) (A) (A) (A) (A) (A) (A) (A) (A) (A) (A)
                 (A) (A) (A) (A) (A) (A) (A) (A) (A) (A) (A) (A)
                 (A) (A) (A) (A) (A) (A) (A) (A) (A) (A) (A) (A)
                 (A) (A) (A) (A) (A) (A) (A) (A) (A) (A) (A) (A)
                 (A) (A) (A) (A) (A) (A) (A) (A) (A) (A) (A) (A)
                 (A) (A) (A) (A) (A) (A) (A) (A) (A) (A) (A) (A)
                 (A) (A) (A) (A) (A) (A) (A) (A) (A) (A) (A) (A)
                 (A) (A) (A) (A) (A) (A) (A) (A) (A) (A) (A) (A)
                 (A) (A) (A) (A) (A) (A) (A) (A) (A) (A) (A) (A)
                 (A) (A) (A) (A) (A) (A) (A) (A) (A) (A) (A) (A)
                 (A) (A) (A) (A) (A) (A) (A) (A) (A) (A) (A) (A)
                 (A) (A) (A) (A) (A) (A) (A) (A) (A) (A) (A) (A)
                 (A) (A) (A) (A) (A) (A) (A) (A) (A) (A) (A) (A)
                 (A) (A) (A) (A) (A) (A) (A) (A) (A) (A) (A) (A)
                 (A) (A) (A) (A) (A) (A) (A) (A) (A) (A) (A) (A)
                 (A) (A) (A) (A) (A) (A) (A) (A) (A) (A) (A) (A)
                 (A) (A) (A) (A) (A) (A) (A) (A) (A) (A) (A) (A)
                 (A) (A) (A) (A) (A) (A) (A) (A) (A) (A) (A) (A)
                 (A) (A) (A) (A) (A) (A) (A) (A) (A) (A) (A) (A)
                 (A) (A) (A) (A) (A) (A) (A) (A) (A) (A) (A) (A)
                 (A) (A) (A) (A) (A) (A) (A) (A) (A) (A) (A) (A)
                 (A) (A) (A) (A) (A) (A) (A) (A) (A) (A) (A) (A)
                 (A) (A) (A) (A) (A) (A) (A) (A) (A) (A) (A) (A)
                 (A) (A) (A) (A) (A) (A) (A) (A) (A) (A) (A) (A)
                 (A) (A) (A) (A) (A) (A) (A) (A) (A) (A) (A) (A)
                 (A) (A) (A) (A) (A) (A) (A) (A) (A) (A) (A) (A)
                 (A) (A) (A) (A) (A) (A) (A) (A) (A) (A) (A) (A)
                 (A) (A) (A) (A) (A) (A) (A) (A) (A) (A) (A) (A)
                 (A) (A) (A) (A) (A) (A) (A) (A) (A) (A) (A) (A)
                 (A) (A) (A) (A) (A) (A) (A) (A) (A) (A) (A) (A)
                 (A) (A) (A) (A) (A) (A) (A) (A) (A) (A) (A) (A)
                 (A) (A) (A) (A) (A) (A)
 The electronic state is 1-A.
 Alpha  occ. eigenvalues --  -19.25881 -19.25849 -19.25830 -19.25823 -19.25817
 Alpha  occ. eigenvalues --  -19.25806 -19.24855 -19.24853 -19.24827 -19.24824
 Alpha  occ. eigenvalues --  -19.24824 -19.24822 -19.24563 -19.24557 -19.24552
 Alpha  occ. eigenvalues --  -19.24551 -19.24547 -19.24536 -19.24523 -19.24510
 Alpha  occ. eigenvalues --  -19.24510 -19.24505 -19.24488 -19.24471 -19.23531
 Alpha  occ. eigenvalues --  -19.23527 -19.23503 -19.23498 -19.23495 -19.23486
 Alpha  occ. eigenvalues --  -19.23481 -19.23472 -19.23462 -19.23436 -19.23428
 Alpha  occ. eigenvalues --  -19.23379 -19.21536 -19.21492  -4.17146  -4.17135
 Alpha  occ. eigenvalues --   -4.17107  -4.17107  -4.17072  -4.17045  -3.62013
 Alpha  occ. eigenvalues --   -3.61979  -3.61974  -3.61962  -3.61955  -3.61892
 Alpha  occ. eigenvalues --   -3.56901  -3.56894  -3.56893  -3.56890  -3.56885
 Alpha  occ. eigenvalues --   -3.56884  -3.56883  -3.56876  -3.56873  -3.56860
 Alpha  occ. eigenvalues --   -3.56859  -3.56815  -3.56391  -2.77099  -2.77085
 Alpha  occ. eigenvalues --   -2.77070  -2.77023  -2.77014  -2.76962  -2.76319
 Alpha  occ. eigenvalues --   -2.76267  -2.76233  -2.76224  -2.76220  -2.76216
 Alpha  occ. eigenvalues --   -2.74096  -2.74076  -2.74032  -2.74020  -2.73993
 Alpha  occ. eigenvalues --   -2.73970  -2.39521  -2.39479  -2.39457  -2.39443
 Alpha  occ. eigenvalues --   -2.39437  -2.39376  -2.38541  -2.38528  -2.38513
 Alpha  occ. eigenvalues --   -2.38505  -2.38499  -2.38455  -2.36034  -2.35993
 Alpha  occ. eigenvalues --   -2.35957  -2.35932  -2.35930  -2.35862  -2.33977
 Alpha  occ. eigenvalues --   -2.33969  -2.33969  -2.33963  -2.33952  -2.33931
 Alpha  occ. eigenvalues --   -2.33924  -2.33923  -2.33921  -2.33911  -2.33903
 Alpha  occ. eigenvalues --   -2.33857  -2.33282  -2.33278  -2.33272  -2.33269
 Alpha  occ. eigenvalues --   -2.33266  -2.33261  -2.33253  -2.33251  -2.33241
 Alpha  occ. eigenvalues --   -2.33229  -2.33228  -2.33191  -2.32960  -2.32953
 Alpha  occ. eigenvalues --   -2.32951  -2.32947  -2.32944  -2.32940  -2.32938
 Alpha  occ. eigenvalues --   -2.32933  -2.32928  -2.32927  -2.32920  -2.32917
 Alpha  occ. eigenvalues --   -2.32881  -2.32624  -2.32620  -0.98916  -0.97546
 Alpha  occ. eigenvalues --   -0.96832  -0.96810  -0.96326  -0.96306  -0.96044
 Alpha  occ. eigenvalues --   -0.96017  -0.95967  -0.95921  -0.95777  -0.95753
 Alpha  occ. eigenvalues --   -0.91911  -0.91890  -0.91866  -0.91793  -0.91782
 Alpha  occ. eigenvalues --   -0.91646  -0.91520  -0.91364  -0.91348  -0.91220
 Alpha  occ. eigenvalues --   -0.91211  -0.91160  -0.91018  -0.90904  -0.90484
 Alpha  occ. eigenvalues --   -0.90465  -0.90431  -0.90415  -0.90101  -0.90040
 Alpha  occ. eigenvalues --   -0.89687  -0.89668  -0.89657  -0.89636  -0.89503
 Alpha  occ. eigenvalues --   -0.89478  -0.48816  -0.47298  -0.46097  -0.46087
 Alpha  occ. eigenvalues --   -0.45413  -0.45371  -0.45192  -0.45122  -0.45088
 Alpha  occ. eigenvalues --   -0.45008  -0.44848  -0.44832  -0.44579  -0.44118
 Alpha  occ. eigenvalues --   -0.43830  -0.43797  -0.43767  -0.43039  -0.43030
 Alpha  occ. eigenvalues --   -0.42236  -0.42221  -0.42108  -0.42046  -0.42041
 Alpha  occ. eigenvalues --   -0.41691  -0.41663  -0.41628  -0.41285  -0.41018
 Alpha  occ. eigenvalues --   -0.41010  -0.40705  -0.40654  -0.40649  -0.40385
 Alpha  occ. eigenvalues --   -0.40297  -0.40271  -0.40129  -0.40078  -0.40067
 Alpha  occ. eigenvalues --   -0.39792  -0.39772  -0.39419  -0.39324  -0.39312
 Alpha  occ. eigenvalues --   -0.39140  -0.39063  -0.38969  -0.38961  -0.38462
 Alpha  occ. eigenvalues --   -0.38300  -0.38292  -0.38195  -0.38184  -0.37622
 Alpha  occ. eigenvalues --   -0.37577  -0.37454  -0.37445  -0.37265  -0.37257
 Alpha  occ. eigenvalues --   -0.37233  -0.37220  -0.37125  -0.36877  -0.36646
 Alpha  occ. eigenvalues --   -0.36613  -0.36608  -0.36334  -0.36327  -0.36221
 Alpha  occ. eigenvalues --   -0.36200  -0.35730  -0.35726  -0.35320  -0.35305
 Alpha  occ. eigenvalues --   -0.35193  -0.35188  -0.34679  -0.34610  -0.34603
 Alpha  occ. eigenvalues --   -0.34528  -0.34462  -0.34459  -0.34183  -0.34041
 Alpha  occ. eigenvalues --   -0.34035  -0.33907  -0.33617  -0.33607  -0.33602
 Alpha  occ. eigenvalues --   -0.33597  -0.33492  -0.33451  -0.33123  -0.33115
 Alpha  occ. eigenvalues --   -0.33035  -0.32892  -0.32886  -0.32858  -0.32849
 Alpha  occ. eigenvalues --   -0.32848  -0.32836  -0.32401  -0.32313  -0.32191
 Alpha  occ. eigenvalues --   -0.32168  -0.32007  -0.31795  -0.31790  -0.31713
 Alpha  occ. eigenvalues --   -0.31709  -0.31614  -0.31608  -0.31528  -0.31417
 Alpha  occ. eigenvalues --   -0.31354  -0.31321  -0.31315  -0.31199  -0.31099
 Alpha  occ. eigenvalues --   -0.31087  -0.30983  -0.30973  -0.30958  -0.30943
 Alpha  occ. eigenvalues --   -0.30513  -0.30505  -0.30358  -0.30273  -0.30205
 Alpha  occ. eigenvalues --   -0.30187  -0.30117  -0.30037  -0.30022  -0.29915
 Alpha  occ. eigenvalues --   -0.29843  -0.29719  -0.29706  -0.29526  -0.29515
 Alpha  occ. eigenvalues --   -0.29414  -0.29410  -0.29201  -0.29196  -0.29137
 Alpha  occ. eigenvalues --   -0.29129  -0.29017  -0.29005  -0.28882  -0.28638
 Alpha  occ. eigenvalues --   -0.28556  -0.28542  -0.28496  -0.28492  -0.28473
 Alpha  occ. eigenvalues --   -0.28455  -0.28444  -0.28434  -0.28055  -0.27867
 Alpha  occ. eigenvalues --   -0.27860  -0.27700  -0.27466  -0.27456  -0.27360
 Alpha  occ. eigenvalues --   -0.27337  -0.27283  -0.27125  -0.26950  -0.26946
[...]
 Alpha virt. eigenvalues --    3.57678   8.65381  10.72730  10.87260  10.88373
 Alpha virt. eigenvalues --   11.00596  11.01247  11.57495  13.97402  14.01215
 Alpha virt. eigenvalues --   14.16357  16.05086  16.08412  44.50808
          Condensed to atoms (all electrons):
 Mulliken charges:
               1
     1  Fe   4.221492
     2  Fe   0.638583
     3  Fe   0.636408
     4  Fe   0.574526
     5  Fe   0.566704
     6  Fe   0.637383
     7  Fe   0.639017
     8  Fe   0.637090
     9  Fe   0.567060
    10  Fe   0.637605
    11  Fe   0.640017
    12  Fe   0.573265
    13  Fe   0.641339
    14  Fe   0.577407
    15  Fe   0.639422
    16  Fe   0.636579
    17  Fe   0.636488
    18  Fe   0.636949
    19  Fe   0.566943
    20  Ni   0.440182
    21  Ni   0.433616
    22  Ni   0.437512
    23  Ni   0.436184
    24  Ni   0.435550
    25  Ni   0.432752
    26  O   -0.313173
    27  O   -0.749900
    28  O   -0.747723
    29  O   -0.753012
    30  O   -0.625404
    31  O   -0.435349
    32  O   -0.434601
    33  O   -0.319853
    34  O   -0.320776
    35  O   -0.435376
    36  O   -0.622515
    37  O   -0.433705
    38  O   -0.318290
    39  O   -0.322118
    40  O   -0.434526
    41  O   -0.435172
    42  O   -0.623218
    43  O   -0.319928
    44  O   -0.319442
    45  O   -0.749670
    46  O   -0.749714
    47  O   -0.747426
    48  O   -0.312458
    49  O   -0.320630
    50  O   -0.318179
    51  O   -0.434816
    52  O   -0.435099
    53  O   -0.621877
    54  O   -0.319373
    55  O   -0.319651
    56  O   -0.435166
    57  O   -0.622787
    58  O   -0.435417
    59  O   -0.318706
    60  O   -0.320136
    61  O   -0.622506
    62  O   -0.436476
    63  O   -0.435907
 Sum of Mulliken charges =   0.00000
 Mulliken charges with hydrogens summed into heavy atoms:
               1
     1  Fe   4.221492
     2  Fe   0.638583
     3  Fe   0.636408
     4  Fe   0.574526
     5  Fe   0.566704
     6  Fe   0.637383
     7  Fe   0.639017
     8  Fe   0.637090
     9  Fe   0.567060
    10  Fe   0.637605
    11  Fe   0.640017
    12  Fe   0.573265
    13  Fe   0.641339
    14  Fe   0.577407
    15  Fe   0.639422
    16  Fe   0.636579
    17  Fe   0.636488
    18  Fe   0.636949
    19  Fe   0.566943
    20  Ni   0.440182
    21  Ni   0.433616
    22  Ni   0.437512
    23  Ni   0.436184
    24  Ni   0.435550
    25  Ni   0.432752
    26  O   -0.313173
    27  O   -0.749900
    28  O   -0.747723
    29  O   -0.753012
    30  O   -0.625404
    31  O   -0.435349
    32  O   -0.434601
    33  O   -0.319853
    34  O   -0.320776
    35  O   -0.435376
    36  O   -0.622515
    37  O   -0.433705
    38  O   -0.318290
    39  O   -0.322118
    40  O   -0.434526
    41  O   -0.435172
    42  O   -0.623218
    43  O   -0.319928
    44  O   -0.319442
    45  O   -0.749670
    46  O   -0.749714
    47  O   -0.747426
    48  O   -0.312458
    49  O   -0.320630
    50  O   -0.318179
    51  O   -0.434816
    52  O   -0.435099
    53  O   -0.621877
    54  O   -0.319373
    55  O   -0.319651
    56  O   -0.435166
    57  O   -0.622787
    58  O   -0.435417
    59  O   -0.318706
    60  O   -0.320136
    61  O   -0.622506
    62  O   -0.436476
    63  O   -0.435907
 Electronic spatial extent (au):  <R**2>=          46859.6327
 Charge=              0.0000 electrons
 Dipole moment (field-independent basis, Debye):
    X=              0.0226    Y=              0.0362    Z=              0.0349  Tot=              0.0551
 Quadrupole moment (field-independent basis, Debye-Ang):
   XX=           -427.4939   YY=           -427.7110   ZZ=           -614.3358
   XY=              0.0310   XZ=             -0.0038   YZ=             -0.2629
 Traceless Quadrupole moment (field-independent basis, Debye-Ang):
   XX=             62.3530   YY=             62.1359   ZZ=           -124.4889
   XY=              0.0310   XZ=             -0.0038   YZ=             -0.2629
 Octapole moment (field-independent basis, Debye-Ang**2):
  XXX=              1.0775  YYY=              1.0530  ZZZ=              0.4644  XYY=             -0.0148
  XXY=              1.2180  XXZ=              0.5098  XZZ=             -0.2235  YZZ=              0.9120
  YYZ=             -0.0862  XYZ=             -0.2571
 Hexadecapole moment (field-independent basis, Debye-Ang**3):
 XXXX=         -18108.5362 YYYY=         -18109.1996 ZZZZ=         -19494.4616 XXXY=              3.7262
 XXXZ=            143.0256 YYYX=             -1.8041 YYYZ=          -1723.3394 ZZZX=             -0.8754
 ZZZY=             -2.3858 XXYY=          -6042.3735 XXZZ=          -5199.0029 YYZZ=          -5202.3313
 XXYZ=           1712.9875 YYXZ=           -139.4372 ZZXY=             -1.1369
 N-N= 2.728681400126D+04 E-N=-6.923107273798D+04  KE= 4.801524661355D+03
 StAtR1:  DoIntr=F IAtCor=3 NETot=     716 Failed=F Sum=  2.50D+02 SumC=  0.00D+00
 There are a total of     1687868 grid points.
 ElSum from          density=      716.0002660726
 ElSum from atomic densities=      966.0004857303

 Hirshfeld populations at iteration   1 (CX, CA, CB, DipXYZ):
               1          2          3          4          5          6
     1  Fe   0.000000   7.919903   7.919903  -0.000239   0.000249   0.000727
     2  Fe   0.000068   7.798197   7.798197  -0.759665   0.338917   0.286443
     3  Fe   0.000067   7.798191   7.798191  -0.132310  -0.821868   0.285259
     4  Fe   0.000000   7.869373   7.869373  -0.022904  -0.012396  -0.057825
     5  Fe   0.000000   7.869414   7.869414   0.022205   0.009965   0.058532
     6  Fe   0.000067   7.797843   7.797843   0.130594   0.823001  -0.285749
     7  Fe   0.000068   7.798015   7.798015   0.760121  -0.338153  -0.286377
     8  Fe   0.000068   7.798022   7.798022  -0.646283   0.524034   0.286403
     9  Fe   0.000000   7.869458   7.869458  -0.000138   0.024779  -0.058721
    10  Fe   0.000066   7.798529   7.798529   0.673872   0.487592   0.285371
    11  Fe   0.000067   7.799273   7.799273  -0.672083  -0.487117  -0.284452
    12  Fe   0.000000   7.869213   7.869213  -0.000842  -0.025768   0.058115
    13  Fe   0.000068   7.798659   7.798659   0.645247  -0.523191  -0.286777
    14  Fe   0.000000   7.869276   7.869276   0.021842  -0.013440  -0.058726
    15  Fe   0.000067   7.798359   7.798359   0.089329  -0.828088   0.284348
    16  Fe   0.000067   7.797536   7.797536   0.778860   0.298718   0.286568
    17  Fe   0.000067   7.797691   7.797691  -0.779161  -0.297331  -0.286239
    18  Fe   0.000067   7.798062   7.798062  -0.086311   0.828762  -0.285838
    19  Fe   0.000000   7.870068   7.870068  -0.021797   0.013451   0.057695
    20  Ni   0.000000   8.779002   8.779002   0.012110   0.008852  -0.102139
    21  Ni   0.000000   8.778988   8.778988   0.000336  -0.015475  -0.100011
    22  Ni   0.000000   8.778933   8.778933  -0.013703   0.011417  -0.099237
    23  Ni   0.000000   8.779196   8.779196   0.014970  -0.005862   0.099553
    24  Ni   0.000000   8.778968   8.778968  -0.002972   0.013493   0.100565
    25  Ni   0.000000   8.778846   8.778846  -0.016181  -0.005821   0.099066
    26  O    0.000026   4.096675   4.096675   0.000171  -0.000226  -0.096524
    27  O    0.000000   4.133662   4.133662   0.018211   0.009436  -0.018660
    28  O    0.000000   4.133883   4.133883  -0.000401  -0.020955  -0.018754
    29  O    0.000000   4.133255   4.133255  -0.017226   0.010217  -0.017865
    30  O    0.000000   4.108904   4.108904   0.005616   0.002888  -0.001971
    31  O    0.000036   4.137152   4.137152   0.011777  -0.107706   0.029865
    32  O    0.000037   4.136838   4.136838  -0.083652   0.068756   0.029051
    33  O    0.000068   4.110299   4.110299   0.055095   0.020215   0.105871
    34  O    0.000067   4.109944   4.109944   0.047831   0.035686   0.105865
    35  O    0.000036   4.137259   4.137259   0.101148   0.038452   0.029930
    36  O    0.000000   4.109251   4.109251  -0.000018  -0.007332  -0.001499
    37  O    0.000036   4.136935   4.136935  -0.098976   0.043699   0.029647
    38  O    0.000068   4.109342   4.109342   0.007015  -0.058363   0.105888
    39  O    0.000067   4.110717   4.110717  -0.010459  -0.058684   0.105797
    40  O    0.000036   4.136640   4.136640   0.087281   0.064057   0.028772
    41  O    0.000037   4.137301   4.137301  -0.017268  -0.106795   0.029969
    42  O    0.000000   4.108891   4.108891  -0.006576   0.003521  -0.001379
    43  O    0.000066   4.109634   4.109634  -0.044831   0.037252   0.106655
    44  O    0.000070   4.109706   4.109706  -0.053657   0.023153   0.106344
    45  O    0.000000   4.133735   4.133735   0.017662  -0.010980   0.018359
    46  O    0.000000   4.133573   4.133573   0.001025   0.020030   0.018357
    47  O    0.000000   4.133845   4.133845  -0.018331  -0.009503   0.018744
    48  O    0.000026   4.096740   4.096740   0.000124  -0.000243   0.096546
    49  O    0.000067   4.110103   4.110103  -0.047467  -0.034671  -0.106039
    50  O    0.000068   4.109148   4.109148  -0.054985  -0.020034  -0.106558
    51  O    0.000037   4.137572   4.137572   0.084073  -0.068374  -0.030505
    52  O    0.000036   4.136577   4.136577  -0.011095   0.107685  -0.029618
    53  O    0.000000   4.109172   4.109172  -0.007107  -0.003475   0.001193
    54  O    0.000067   4.109469   4.109469   0.009467   0.058077  -0.106190
    55  O    0.000068   4.109868   4.109868  -0.006862   0.058696  -0.105827
    56  O    0.000036   4.136614   4.136614   0.098857  -0.044246  -0.029789
    57  O    0.000000   4.108933   4.108933   0.000130   0.007302   0.001516
    58  O    0.000036   4.136844   4.136844  -0.101033  -0.038740  -0.029880
    59  O    0.000069   4.109544   4.109544   0.053649  -0.022832  -0.106317
    60  O    0.000066   4.110087   4.110087   0.045025  -0.037459  -0.106249
    61  O    0.000000   4.109165   4.109165   0.006197  -0.004109   0.001742
    62  O    0.000037   4.136851   4.136851   0.015985   0.106911  -0.030004
    63  O    0.000036   4.136994   4.136994  -0.087938  -0.062836  -0.030234
       Tot   0.002106 358.000133 358.000133  -0.006645   0.007192  -0.007197

 Dip from Atomic Chgs              0.015503   0.006961   0.020916
         Total Dipole              0.008858   0.014153   0.013720

 Hirshfeld charges, spin densities, dipoles, and CM5 charges using IRadAn=      5:
              Q-H        S-H        Dx         Dy         Dz        Q-CM5   
     1  Fe   0.160194   0.000000  -0.000239   0.000249   0.000727   0.487845
     2  Fe   0.403606   0.000000  -0.759665   0.338917   0.286443   0.567251
     3  Fe   0.403619   0.000000  -0.132310  -0.821868   0.285259   0.566682
     4  Fe   0.261254   0.000000  -0.022904  -0.012396  -0.057825   0.586599
     5  Fe   0.261172   0.000000   0.022205   0.009965   0.058532   0.587784
     6  Fe   0.404315   0.000000   0.130594   0.823001  -0.285749   0.567316
     7  Fe   0.403970   0.000000   0.760121  -0.338153  -0.286377   0.567015
     8  Fe   0.403956   0.000000  -0.646283   0.524034   0.286403   0.567002
     9  Fe   0.261083   0.000000  -0.000138   0.024779  -0.058721   0.589016
    10  Fe   0.402941   0.000000   0.673872   0.487592   0.285371   0.566510
    11  Fe   0.401453   0.000000  -0.672083  -0.487117  -0.284452   0.566715
    12  Fe   0.261575   0.000000  -0.000842  -0.025768   0.058115   0.585977
    13  Fe   0.402683   0.000000   0.645247  -0.523191  -0.286777   0.566931
    14  Fe   0.261447   0.000000   0.021842  -0.013440  -0.058726   0.586172
    15  Fe   0.403283   0.000000   0.089329  -0.828088   0.284348   0.566845
    16  Fe   0.404928   0.000000   0.778860   0.298718   0.286568   0.567355
    17  Fe   0.404617   0.000000  -0.779161  -0.297331  -0.286239   0.567050
    18  Fe   0.403876   0.000000  -0.086311   0.828762  -0.285838   0.566843
    19  Fe   0.259864   0.000000  -0.021797   0.013451   0.057695   0.586592
    20  Ni   0.441997   0.000000   0.012110   0.008852  -0.102139   0.668694
    21  Ni   0.442023   0.000000   0.000336  -0.015475  -0.100011   0.666036
    22  Ni   0.442133   0.000000  -0.013703   0.011417  -0.099237   0.668688
    23  Ni   0.441609   0.000000   0.014970  -0.005862   0.099553   0.666892
    24  Ni   0.442063   0.000000  -0.002972   0.013493   0.100565   0.668596
    25  Ni   0.442309   0.000000  -0.016181  -0.005821   0.099066   0.667428
    26  O   -0.193350   0.000000   0.000171  -0.000226  -0.096524  -0.355520
    27  O   -0.267324   0.000000   0.018211   0.009436  -0.018660  -0.484861
    28  O   -0.267766   0.000000  -0.000401  -0.020955  -0.018754  -0.484038
    29  O   -0.266509   0.000000  -0.017226   0.010217  -0.017865  -0.485252
    30  O   -0.217808   0.000000   0.005616   0.002888  -0.001971  -0.439242
    31  O   -0.274304   0.000000   0.011777  -0.107706   0.029865  -0.384548
    32  O   -0.273677   0.000000  -0.083652   0.068756   0.029051  -0.383819
    33  O   -0.220597   0.000000   0.055095   0.020215   0.105871  -0.329813
    34  O   -0.219887   0.000000   0.047831   0.035686   0.105865  -0.330940
    35  O   -0.274519   0.000000   0.101148   0.038452   0.029930  -0.385007
    36  O   -0.218501   0.000000  -0.000018  -0.007332  -0.001499  -0.438355
    37  O   -0.273869   0.000000  -0.098976   0.043699   0.029647  -0.383925
    38  O   -0.218685   0.000000   0.007015  -0.058363   0.105888  -0.328561
    39  O   -0.221433   0.000000  -0.010459  -0.058684   0.105797  -0.332311
    40  O   -0.273280   0.000000   0.087281   0.064057   0.028772  -0.383531
    41  O   -0.274602   0.000000  -0.017268  -0.106795   0.029969  -0.384553
    42  O   -0.217781   0.000000  -0.006576   0.003521  -0.001379  -0.438572
    43  O   -0.219268   0.000000  -0.044831   0.037252   0.106655  -0.329992
    44  O   -0.219412   0.000000  -0.053657   0.023153   0.106344  -0.329295
    45  O   -0.267470   0.000000   0.017662  -0.010980   0.018359  -0.484448
    46  O   -0.267145   0.000000   0.001025   0.020030   0.018357  -0.484965
    47  O   -0.267690   0.000000  -0.018331  -0.009503   0.018744  -0.483965
    48  O   -0.193480   0.000000   0.000124  -0.000243   0.096546  -0.354907
    49  O   -0.220206   0.000000  -0.047467  -0.034671  -0.106039  -0.330485
    50  O   -0.218297   0.000000  -0.054985  -0.020034  -0.106558  -0.328598
    51  O   -0.275144   0.000000   0.084073  -0.068374  -0.030505  -0.384853
    52  O   -0.273154   0.000000  -0.011095   0.107685  -0.029618  -0.383867
    53  O   -0.218343   0.000000  -0.007107  -0.003475   0.001193  -0.438298
    54  O   -0.218938   0.000000   0.009467   0.058077  -0.106190  -0.329341
    55  O   -0.219736   0.000000  -0.006862   0.058696  -0.105827  -0.329588
    56  O   -0.273227   0.000000   0.098857  -0.044246  -0.029789  -0.383812
    57  O   -0.217865   0.000000   0.000130   0.007302   0.001516  -0.438851
    58  O   -0.273687   0.000000  -0.101033  -0.038740  -0.029880  -0.384162
    59  O   -0.219088   0.000000   0.053649  -0.022832  -0.106317  -0.329012
    60  O   -0.220173   0.000000   0.045025  -0.037459  -0.106249  -0.330055
    61  O   -0.218330   0.000000   0.006197  -0.004109   0.001742  -0.438568
    62  O   -0.273702   0.000000   0.015985   0.106911  -0.030004  -0.385266
    63  O   -0.273987   0.000000  -0.087938  -0.062836  -0.030234  -0.384925
       Tot  -0.000266   0.000000  -0.006645   0.007192  -0.007197  -0.000266
 Hirshfeld charges with hydrogens summed into heavy atoms:
              Q-H       Q-CM5   
     1  Fe   0.160194   0.487845
     2  Fe   0.403606   0.567251
     3  Fe   0.403619   0.566682
     4  Fe   0.261254   0.586599
     5  Fe   0.261172   0.587784
     6  Fe   0.404315   0.567316
     7  Fe   0.403970   0.567015
     8  Fe   0.403956   0.567002
     9  Fe   0.261083   0.589016
    10  Fe   0.402941   0.566510
    11  Fe   0.401453   0.566715
    12  Fe   0.261575   0.585977
    13  Fe   0.402683   0.566931
    14  Fe   0.261447   0.586172
    15  Fe   0.403283   0.566845
    16  Fe   0.404928   0.567355
    17  Fe   0.404617   0.567050
    18  Fe   0.403876   0.566843
    19  Fe   0.259864   0.586592
    20  Ni   0.441997   0.668694
    21  Ni   0.442023   0.666036
    22  Ni   0.442133   0.668688
    23  Ni   0.441609   0.666892
    24  Ni   0.442063   0.668596
    25  Ni   0.442309   0.667428
    26  O   -0.193350  -0.355520
    27  O   -0.267324  -0.484861
    28  O   -0.267766  -0.484038
    29  O   -0.266509  -0.485252
    30  O   -0.217808  -0.439242
    31  O   -0.274304  -0.384548
    32  O   -0.273677  -0.383819
    33  O   -0.220597  -0.329813
    34  O   -0.219887  -0.330940
    35  O   -0.274519  -0.385007
    36  O   -0.218501  -0.438355
    37  O   -0.273869  -0.383925
    38  O   -0.218685  -0.328561
    39  O   -0.221433  -0.332311
    40  O   -0.273280  -0.383531
    41  O   -0.274602  -0.384553
    42  O   -0.217781  -0.438572
    43  O   -0.219268  -0.329992
    44  O   -0.219412  -0.329295
    45  O   -0.267470  -0.484448
    46  O   -0.267145  -0.484965
    47  O   -0.267690  -0.483965
    48  O   -0.193480  -0.354907
    49  O   -0.220206  -0.330485
    50  O   -0.218297  -0.328598
    51  O   -0.275144  -0.384853
    52  O   -0.273154  -0.383867
    53  O   -0.218343  -0.438298
    54  O   -0.218938  -0.329341
    55  O   -0.219736  -0.329588
    56  O   -0.273227  -0.383812
    57  O   -0.217865  -0.438851
    58  O   -0.273687  -0.384162
    59  O   -0.219088  -0.329012
    60  O   -0.220173  -0.330055
    61  O   -0.218330  -0.438568
    62  O   -0.273702  -0.385266
    63  O   -0.273987  -0.384925
 
 EQQ=  0.00000000000     EQD=  0.00000000000     EDD= 0.561699347918E-02
 EQQ+QD+DD= 0.561699347918E-02
 
 No NMR shielding tensors so no spin-rotation constants.
 Leave Link  601 at Sun Oct 12 09:08:39 2025, MaxMem=  4294967296 cpu:              62.9 elap:               7.9
 (Enter /opt/modules/software/gaussian/G16-C01/l9999.exe)
 Unable to Open any file for archive entry.
 1\1\GINC-PRCC02008\SP\RPBE1PBE\GenECP\Fe19Ni6O38\FUTERA\12-Oct-2025\0\
 \#p PBE1PBE/GenECP SCF(Tight,QC,Restart) Pop(Hirshfeld)\\Nickel ferrat
 e (PBE0/LANL2DZ)\\0,1\Fe,0,14.5,15.19,14.9\Fe,0,10.,12.6,14.9\Fe,0,13.
 ,14.33,19.79\Fe,0,13.,17.79,14.9\Fe,0,16.,12.6,14.9\Fe,0,16.,16.06,10.
 \Fe,0,18.99,17.79,14.9\Fe,0,10.,14.33,12.45\Fe,0,13.,16.06,17.34\Fe,0,
 13.,19.52,12.45\Fe,0,16.,10.87,17.34\Fe,0,16.,14.33,12.45\Fe,0,18.99,1
 6.06,17.34\Fe,0,11.5,15.19,14.9\Fe,0,14.5,16.92,19.79\Fe,0,14.5,20.39,
 14.9\Fe,0,14.5,10.,14.9\Fe,0,14.5,13.46,10.\Fe,0,17.5,15.19,14.9\Ni,0,
 13.,12.6,16.73\Ni,0,13.,16.06,11.84\Ni,0,16.,17.79,16.73\Ni,0,13.,12.6
 ,13.06\Ni,0,16.,14.33,17.96\Ni,0,16.,17.79,13.06\O,0,11.61,16.86,16.08
 \O,0,14.61,11.67,16.08\O,0,14.61,15.13,11.18\O,0,17.6,16.86,16.08\O,0,
 13.,14.45,16.08\O,0,13.,17.92,11.18\O,0,16.,19.65,16.08\O,0,16.,12.72,
 11.18\O,0,18.99,14.45,16.08\O,0,13.,12.6,18.7\O,0,13.,16.06,13.81\O,0,
 16.,17.79,18.7\O,0,16.,10.87,13.81\O,0,18.99,16.06,13.81\O,0,11.39,11.
 67,16.08\O,0,11.39,15.13,11.18\O,0,14.39,16.86,16.08\O,0,17.39,11.67,1
 6.08\O,0,17.39,15.13,11.18\O,0,11.39,13.52,13.72\O,0,14.39,15.26,18.61
 \O,0,14.39,18.72,13.72\O,0,17.39,13.52,13.72\O,0,10.,15.93,13.72\O,0,1
 3.,17.66,18.61\O,0,13.,10.74,13.72\O,0,16.,12.47,18.61\O,0,16.,15.93,1
 3.72\O,0,10.,14.33,15.99\O,0,13.,19.52,15.99\O,0,13.,12.6,11.09\O,0,16
 .,14.33,15.99\O,0,16.,17.79,11.09\O,0,11.61,15.26,18.61\O,0,11.61,18.7
 2,13.72\O,0,14.61,13.52,13.72\O,0,17.6,15.26,18.61\O,0,17.6,18.72,13.7
 2\\Version=ES64L-G16RevC.01\State=1-A\HF=-6213.3282054\RMSD=9.723e-12\
 Dipole=-0.0111399,0.016236,-0.0090727\Quadrupole=-46.3776184,15.488712
 ,30.8889065,53.5024366,37.6400988,-21.7496383\PG=C01 [X(Fe19Ni6O38)]\\
 @
 The archive entry for this job was punched.


 Change starts when someone sees the next step.
                            -- William Drayton
 Job cpu time:       0 days  0 hours 21 minutes 47.5 seconds.
 Elapsed time:       0 days  0 hours  2 minutes 43.6 seconds.
 File lengths (MBytes):  RWF=    265 Int=      0 D2E=      0 Chk=     41 Scr=      1
 Normal termination of Gaussian 16 at Sun Oct 12 09:08:39 2025.
