 Entering Gaussian System, Link 0=g16
 Input=charges.com
 Output=charges.log
 Initial command:
 /opt/modules/software/gaussian/G16-C01/l1.exe "/home/futera/Documents/2025-nife2o4-params/parametrization/Gau-2932909.inp" -scrdir="/home/futera/Documents/2025-nife2o4-params/parametrization/"
 Entering Link 1 = /opt/modules/software/gaussian/G16-C01/l1.exe PID=   2932910.
  
 Copyright (c) 1988-2019, Gaussian, Inc.  All Rights Reserved.
  
 This is part of the Gaussian(R) 16 program.  It is based on
 the Gaussian(R) 09 system (copyright 2009, Gaussian, Inc.),
 the Gaussian(R) 03 system (copyright 2003, Gaussian, Inc.),
 the Gaussian(R) 98 system (copyright 1998, Gaussian, Inc.),
 the Gaussian(R) 94 system (copyright 1995, Gaussian, Inc.),
 the Gaussian 92(TM) system (copyright 1992, Gaussian, Inc.),
 the Gaussian 90(TM) system (copyright 1990, Gaussian, Inc.),
 the Gaussian 88(TM) system (copyright 1988, Gaussian, Inc.),
 the Gaussian 86(TM) system (copyright 1986, Carnegie Mellon
 University), and the Gaussian 82(TM) system (copyright 1983,
 Carnegie Mellon University). Gaussian is a federally registered
 trademark of Gaussian, Inc.
  
 This software contains proprietary and confidential information,
 including trade secrets, belonging to Gaussian, Inc.
  
 This software is provided under written license and may be
 used, copied, transmitted, or stored only in accord with that
 written license.
  
 The following legend is applicable only to US Government
 contracts under FAR:
  
                    RESTRICTED RIGHTS LEGEND
  
 Use, reproduction and disclosure by the US Government is
 subject to restrictions as set forth in subparagraphs (a)
 and (c) of the Commercial Computer Software - Restricted
 Rights clause in FAR 52.227-19.
  
 Gaussian, Inc.
 340 Quinnipiac St., Bldg. 40, Wallingford CT 06492
  
  
 ---------------------------------------------------------------
 Warning -- This program may not be used in any manner that
 competes with the business of Gaussian, Inc. or will provide
 assistance to any competitor of Gaussian, Inc.  The licensee
 of this program is prohibited from giving any competitor of
 Gaussian, Inc. access to this program.  By using this program,
 the user acknowledges that Gaussian, Inc. is engaged in the
 business of creating and licensing software in the field of
 computational chemistry and represents and warrants to the
 licensee that it is not a competitor of Gaussian, Inc. and that
 it will not use this program in any manner prohibited above.
 ---------------------------------------------------------------
  

 Cite this work as:
 Gaussian 16, Revision C.01,
 M. J. Frisch, G. W. Trucks, H. B. Schlegel, G. E. Scuseria, 
 M. A. Robb, J. R. Cheeseman, G. Scalmani, V. Barone, 
 G. A. Petersson, H. Nakatsuji, X. Li, M. Caricato, A. V. Marenich, 
 J. Bloino, B. G. Janesko, R. Gomperts, B. Mennucci, H. P. Hratchian, 
 J. V. Ortiz, A. F. Izmaylov, J. L. Sonnenberg, D. Williams-Young, 
 F. Ding, F. Lipparini, F. Egidi, J. Goings, B. Peng, A. Petrone, 
 T. Henderson, D. Ranasinghe, V. G. Zakrzewski, J. Gao, N. Rega, 
 G. Zheng, W. Liang, M. Hada, M. Ehara, K. Toyota, R. Fukuda, 
 J. Hasegawa, M. Ishida, T. Nakajima, Y. Honda, O. Kitao, H. Nakai, 
 T. Vreven, K. Throssell, J. A. Montgomery, Jr., J. E. Peralta, 
 F. Ogliaro, M. J. Bearpark, J. J. Heyd, E. N. Brothers, K. N. Kudin, 
 V. N. Staroverov, T. A. Keith, R. Kobayashi, J. Normand, 
 K. Raghavachari, A. P. Rendell, J. C. Burant, S. S. Iyengar, 
 J. Tomasi, M. Cossi, J. M. Millam, M. Klene, C. Adamo, R. Cammi, 
 J. W. Ochterski, R. L. Martin, K. Morokuma, O. Farkas, 
 J. B. Foresman, and D. J. Fox, Gaussian, Inc., Wallingford CT, 2019.
 
 ******************************************
 Gaussian 16:  ES64L-G16RevC.01  3-Jul-2019
                 8-Oct-2025 
 ******************************************
 %mem=32GB
 %nproc=8
 Will use up to    8 processors via shared memory.
 %chk=charges.chk
 ---------------------------------------
 #p PBE1PBE/GenECP SCF(Tight,QC) Pop(MK)
 ---------------------------------------
 1/38=1,172=1/1;
 2/12=2,17=6,18=5,40=1/2;
 3/5=7,11=2,16=1,17=8,25=1,30=1,74=-13/1,2,3;
 4//1;
 5/5=2,8=3,32=2,38=5/8;
 6/7=2,8=2,9=2,10=2,15=8,20=1,28=1/1,2;
 99/5=1,9=1/99;
 Leave Link    1 at Wed Oct  8 08:04:44 2025, MaxMem=  4294967296 cpu:               0.1 elap:               0.0
 (Enter /opt/modules/software/gaussian/G16-C01/l101.exe)
 -----------------------------
 Nickel ferrate (PBE0/LANL2DZ)
 -----------------------------
 Symbolic Z-matrix:
 Charge =  0 Multiplicity = 1
 Fe                    14.5      15.19     14.9 
 Fe                    10.       12.6      14.9 
 Fe                    13.       14.33     19.79 
 Fe                    13.       17.79     14.9 
 Fe                    16.       12.6      14.9 
 Fe                    16.       16.06     10. 
 Fe                    18.99     17.79     14.9 
 Fe                    10.       14.33     12.45 
 Fe                    13.       16.06     17.34 
 Fe                    13.       19.52     12.45 
 Fe                    16.       10.87     17.34 
 Fe                    16.       14.33     12.45 
 Fe                    18.99     16.06     17.34 
 Fe                    11.5      15.19     14.9 
 Fe                    14.5      16.92     19.79 
 Fe                    14.5      20.39     14.9 
 Fe                    14.5      10.       14.9 
 Fe                    14.5      13.46     10. 
 Fe                    17.5      15.19     14.9 
 Ni                    13.       12.6      16.73 
 Ni                    13.       16.06     11.84 
 Ni                    16.       17.79     16.73 
 Ni                    13.       12.6      13.06 
 Ni                    16.       14.33     17.96 
 Ni                    16.       17.79     13.06 
 O                     11.61     16.86     16.08 
 O                     14.61     11.67     16.08 
 O                     14.61     15.13     11.18 
 O                     17.6      16.86     16.08 
 O                     13.       14.45     16.08 
 O                     13.       17.92     11.18 
 O                     16.       19.65     16.08 
 O                     16.       12.72     11.18 
 O                     18.99     14.45     16.08 
 O                     13.       12.6      18.7 
 O                     13.       16.06     13.81 
 O                     16.       17.79     18.7 
 O                     16.       10.87     13.81 
 O                     18.99     16.06     13.81 
 O                     11.39     11.67     16.08 
 O                     11.39     15.13     11.18 
 O                     14.39     16.86     16.08 
 O                     17.39     11.67     16.08 
 O                     17.39     15.13     11.18 
 O                     11.39     13.52     13.72 
 O                     14.39     15.26     18.61 
 O                     14.39     18.72     13.72 
 O                     17.39     13.52     13.72 
 O                     10.       15.93     13.72 
 O                     13.       17.66     18.61 
 O                     13.       10.74     13.72 
 O                     16.       12.47     18.61 
 O                     16.       15.93     13.72 
 O                     10.       14.33     15.99 
 O                     13.       19.52     15.99 
 O                     13.       12.6      11.09 
 O                     16.       14.33     15.99 
 O                     16.       17.79     11.09 
 O                     11.61     15.26     18.61 
 O                     11.61     18.72     13.72 
 O                     14.61     13.52     13.72 
 O                     17.6      15.26     18.61 
 O                     17.6      18.72     13.72 
 
 ITRead=  0  0  0  0  0  0  0  0  0  0  0  0  0  0  0  0  0  0  0  0
 ITRead=  0  0  0  0  0  0  0  0  0  0  0  0  0  0  0  0  0  0  0  0
 ITRead=  0  0  0  0  0  0  0  0  0  0  0  0  0  0  0  0  0  0  0  0
 ITRead=  0  0  0
 MicOpt= -1 -1 -1 -1 -1 -1 -1 -1 -1 -1 -1 -1 -1 -1 -1 -1 -1 -1 -1 -1
 MicOpt= -1 -1 -1 -1 -1 -1 -1 -1 -1 -1 -1 -1 -1 -1 -1 -1 -1 -1 -1 -1
 MicOpt= -1 -1 -1 -1 -1 -1 -1 -1 -1 -1 -1 -1 -1 -1 -1 -1 -1 -1 -1 -1
 MicOpt= -1 -1 -1
 NAtoms=     63 NQM=       63 NQMF=       0 NMMI=      0 NMMIF=      0
                NMic=       0 NMicF=      0.
                    Isotopes and Nuclear Properties:
 (Nuclear quadrupole moments (NQMom) in fm**2, nuclear magnetic moments (NMagM)
  in nuclear magnetons)

  Atom         1           2           3           4           5           6           7           8           9          10
 IAtWgt=          56          56          56          56          56          56          56          56          56          56
 AtmWgt=  55.9349393  55.9349393  55.9349393  55.9349393  55.9349393  55.9349393  55.9349393  55.9349393  55.9349393  55.9349393
 NucSpn=           0           0           0           0           0           0           0           0           0           0
 AtZEff=  -0.0000000  -0.0000000  -0.0000000  -0.0000000  -0.0000000  -0.0000000  -0.0000000  -0.0000000  -0.0000000  -0.0000000
 NQMom=    0.0000000   0.0000000   0.0000000   0.0000000   0.0000000   0.0000000   0.0000000   0.0000000   0.0000000   0.0000000
 NMagM=    0.0000000   0.0000000   0.0000000   0.0000000   0.0000000   0.0000000   0.0000000   0.0000000   0.0000000   0.0000000
 AtZNuc=  26.0000000  26.0000000  26.0000000  26.0000000  26.0000000  26.0000000  26.0000000  26.0000000  26.0000000  26.0000000

  Atom        11          12          13          14          15          16          17          18          19          20
 IAtWgt=          56          56          56          56          56          56          56          56          56          58
 AtmWgt=  55.9349393  55.9349393  55.9349393  55.9349393  55.9349393  55.9349393  55.9349393  55.9349393  55.9349393  57.9353471
 NucSpn=           0           0           0           0           0           0           0           0           0           0
 AtZEff=  -0.0000000  -0.0000000  -0.0000000  -0.0000000  -0.0000000  -0.0000000  -0.0000000  -0.0000000  -0.0000000  -0.0000000
 NQMom=    0.0000000   0.0000000   0.0000000   0.0000000   0.0000000   0.0000000   0.0000000   0.0000000   0.0000000   0.0000000
 NMagM=    0.0000000   0.0000000   0.0000000   0.0000000   0.0000000   0.0000000   0.0000000   0.0000000   0.0000000   0.0000000
 AtZNuc=  26.0000000  26.0000000  26.0000000  26.0000000  26.0000000  26.0000000  26.0000000  26.0000000  26.0000000  28.0000000

  Atom        21          22          23          24          25          26          27          28          29          30
 IAtWgt=          58          58          58          58          58          16          16          16          16          16
 AtmWgt=  57.9353471  57.9353471  57.9353471  57.9353471  57.9353471  15.9949146  15.9949146  15.9949146  15.9949146  15.9949146
 NucSpn=           0           0           0           0           0           0           0           0           0           0
 AtZEff=  -0.0000000  -0.0000000  -0.0000000  -0.0000000  -0.0000000  -0.0000000  -0.0000000  -0.0000000  -0.0000000  -0.0000000
 NQMom=    0.0000000   0.0000000   0.0000000   0.0000000   0.0000000   0.0000000   0.0000000   0.0000000   0.0000000   0.0000000
 NMagM=    0.0000000   0.0000000   0.0000000   0.0000000   0.0000000   0.0000000   0.0000000   0.0000000   0.0000000   0.0000000
 AtZNuc=  28.0000000  28.0000000  28.0000000  28.0000000  28.0000000   8.0000000   8.0000000   8.0000000   8.0000000   8.0000000

  Atom        31          32          33          34          35          36          37          38          39          40
 IAtWgt=          16          16          16          16          16          16          16          16          16          16
 AtmWgt=  15.9949146  15.9949146  15.9949146  15.9949146  15.9949146  15.9949146  15.9949146  15.9949146  15.9949146  15.9949146
 NucSpn=           0           0           0           0           0           0           0           0           0           0
 AtZEff=  -0.0000000  -0.0000000  -0.0000000  -0.0000000  -0.0000000  -0.0000000  -0.0000000  -0.0000000  -0.0000000  -0.0000000
 NQMom=    0.0000000   0.0000000   0.0000000   0.0000000   0.0000000   0.0000000   0.0000000   0.0000000   0.0000000   0.0000000
 NMagM=    0.0000000   0.0000000   0.0000000   0.0000000   0.0000000   0.0000000   0.0000000   0.0000000   0.0000000   0.0000000
 AtZNuc=   8.0000000   8.0000000   8.0000000   8.0000000   8.0000000   8.0000000   8.0000000   8.0000000   8.0000000   8.0000000

  Atom        41          42          43          44          45          46          47          48          49          50
 IAtWgt=          16          16          16          16          16          16          16          16          16          16
 AtmWgt=  15.9949146  15.9949146  15.9949146  15.9949146  15.9949146  15.9949146  15.9949146  15.9949146  15.9949146  15.9949146
 NucSpn=           0           0           0           0           0           0           0           0           0           0
 AtZEff=  -0.0000000  -0.0000000  -0.0000000  -0.0000000  -0.0000000  -0.0000000  -0.0000000  -0.0000000  -0.0000000  -0.0000000
 NQMom=    0.0000000   0.0000000   0.0000000   0.0000000   0.0000000   0.0000000   0.0000000   0.0000000   0.0000000   0.0000000
 NMagM=    0.0000000   0.0000000   0.0000000   0.0000000   0.0000000   0.0000000   0.0000000   0.0000000   0.0000000   0.0000000
 AtZNuc=   8.0000000   8.0000000   8.0000000   8.0000000   8.0000000   8.0000000   8.0000000   8.0000000   8.0000000   8.0000000

  Atom        51          52          53          54          55          56          57          58          59          60
 IAtWgt=          16          16          16          16          16          16          16          16          16          16
 AtmWgt=  15.9949146  15.9949146  15.9949146  15.9949146  15.9949146  15.9949146  15.9949146  15.9949146  15.9949146  15.9949146
 NucSpn=           0           0           0           0           0           0           0           0           0           0
 AtZEff=  -0.0000000  -0.0000000  -0.0000000  -0.0000000  -0.0000000  -0.0000000  -0.0000000  -0.0000000  -0.0000000  -0.0000000
 NQMom=    0.0000000   0.0000000   0.0000000   0.0000000   0.0000000   0.0000000   0.0000000   0.0000000   0.0000000   0.0000000
 NMagM=    0.0000000   0.0000000   0.0000000   0.0000000   0.0000000   0.0000000   0.0000000   0.0000000   0.0000000   0.0000000
 AtZNuc=   8.0000000   8.0000000   8.0000000   8.0000000   8.0000000   8.0000000   8.0000000   8.0000000   8.0000000   8.0000000

  Atom        61          62          63
 IAtWgt=          16          16          16
 AtmWgt=  15.9949146  15.9949146  15.9949146
 NucSpn=           0           0           0
 AtZEff=  -0.0000000  -0.0000000  -0.0000000
 NQMom=    0.0000000   0.0000000   0.0000000
 NMagM=    0.0000000   0.0000000   0.0000000
 AtZNuc=   8.0000000   8.0000000   8.0000000
 Leave Link  101 at Wed Oct  8 08:04:44 2025, MaxMem=  4294967296 cpu:               0.8 elap:               0.1
 (Enter /opt/modules/software/gaussian/G16-C01/l202.exe)
 Stoichiometry    Fe19Ni6O38
 Framework group  C1[X(Fe19Ni6O38)]
 Deg. of freedom   183
 Full point group                 C1      NOp   1
 Largest Abelian subgroup         C1      NOp   1
 Largest concise Abelian subgroup C1      NOp   1
                         Standard orientation:                         
 ---------------------------------------------------------------------
 Center     Atomic      Atomic             Coordinates (Angstroms)
 Number     Number       Type             X           Y           Z
 ---------------------------------------------------------------------
      1         26           0       -0.002927   -0.003199   -0.001747
      2         26           0       -4.470899    0.983185    2.452305
      3         26           0       -1.611031   -4.282377    2.448628
      4         26           0        1.521645    0.823506    2.448200
      5         26           0       -1.518797   -0.828467   -2.446982
      6         26           0        1.614129    4.286840   -2.450745
      7         26           0        4.468827   -0.985126   -2.442922
      8         26           0       -2.904436    3.540839    2.450423
      9         26           0       -0.044569   -1.724723    2.446747
     10         26           0        3.088108    3.381159    2.446318
     11         26           0       -3.085011   -3.376696   -2.448435
     12         26           0        0.047666    1.729187   -2.448864
     13         26           0        2.902613   -3.533356   -2.444375
     14         26           0       -1.478978    0.902627    2.447896
     15         26           0        1.380890   -4.362935    2.444220
     16         26           0        4.522268    0.744385    2.448503
     17         26           0       -4.519420   -0.749346   -2.447285
     18         26           0       -1.386495    4.365961   -2.451049
     19         26           0        1.473124   -0.909025   -2.451390
     20         28           0       -3.040385   -1.647276    0.612956
     21         28           0        0.092291    3.458607    0.612528
     22         28           0        2.952159   -1.806955    0.608851
     23         28           0       -2.949062    1.811419   -0.610968
     24         28           0       -0.089443   -3.463567   -0.611310
     25         28           0        3.043482    1.651740   -0.615073
     26          8           0       -0.000935   -0.002557    3.538507
     27          8           0       -3.041377   -1.654530   -1.356675
     28          8           0        0.091548    3.460777   -1.360438
     29          8           0        2.946247   -1.811190   -1.352615
     30          8           0       -1.414285   -0.768733    1.267909
     31          8           0        1.727342    4.348012    1.268857
     32          8           0        4.586961   -0.926975    1.268515
     33          8           0       -1.321802    2.694601   -3.631036
     34          8           0        1.532897   -2.577366   -3.623213
     35          8           0       -3.089406   -3.503851    1.269940
     36          8           0        0.043271    1.602032    1.269511
     37          8           0        2.903138   -3.663530    1.265835
     38          8           0       -2.997171   -0.049940   -3.625670
     39          8           0        2.990453   -0.206600   -3.621610
     40          8           0       -4.625672   -0.682277    1.272609
     41          8           0       -1.492747    4.433030    1.268845
     42          8           0        1.366872   -0.841956    1.268504
     43          8           0       -1.673570   -2.493928   -3.626677
     44          8           0        1.459356    2.621378   -3.630441
     45          8           0       -2.957021    1.807811    1.357286
     46          8           0       -0.088451   -3.456314    1.358321
     47          8           0        3.044225    1.649569    1.357893
     48          8           0       -0.004919   -0.003841   -3.542001
     49          8           0       -1.543671    2.573987    3.627884
     50          8           0        1.316197   -2.691575    3.624207
     51          8           0       -4.584113    0.922014   -1.267297
     52          8           0       -1.724245   -4.343548   -1.270974
     53          8           0        1.408431    0.762335   -1.271403
     54          8           0       -2.992525    0.204659    3.630993
     55          8           0        3.000020    0.044980    3.626888
     56          8           0       -2.900041    3.667993   -1.267952
     57          8           0       -0.040422   -1.606993   -1.268293
     58          8           0        3.092503    3.508314   -1.272057
     59          8           0       -1.456258   -2.616915    3.628324
     60          8           0        1.676418    2.488968    3.627895
     61          8           0       -1.372726    0.835558   -1.271998
     62          8           0        1.490924   -4.425547   -1.262797
     63          8           0        4.623600    0.680335   -1.263226
 ---------------------------------------------------------------------
 Rotational constants (GHZ):           0.0219673           0.0219629           0.0190309
 Leave Link  202 at Wed Oct  8 08:04:44 2025, MaxMem=  4294967296 cpu:               0.0 elap:               0.0
 (Enter /opt/modules/software/gaussian/G16-C01/l301.exe)
 General basis read from cards:  (5D, 7F)
 Centers:      26     27     28     29     30     31     32     33     34     35
 Centers:      36     37     38     39     40     41     42     43     44     45
 Centers:      46     47     48     49     50     51     52     53     54     55
 Centers:      56     57     58     59     60     61     62     63
 S 7 1.00
     Exponent=  7.8170000000D+03 Coefficients=  1.1760000000D-03
     Exponent=  1.1760000000D+03 Coefficients=  8.9680000000D-03
     Exponent=  2.7320000000D+02 Coefficients=  4.2868000000D-02
     Exponent=  8.1170000000D+01 Coefficients=  1.4393000000D-01
     Exponent=  2.7180000000D+01 Coefficients=  3.5563000000D-01
     Exponent=  9.5320000000D+00 Coefficients=  4.6124800000D-01
     Exponent=  3.4140000000D+00 Coefficients=  1.4020600000D-01
 S 2 1.00
     Exponent=  9.5320000000D+00 Coefficients= -1.5415300000D-01
     Exponent=  9.3980000000D-01 Coefficients=  1.0569140000D+00
 S 1 1.00
     Exponent=  2.8460000000D-01 Coefficients=  1.0000000000D+00
 P 4 1.00
     Exponent=  3.5180000000D+01 Coefficients=  1.9580000000D-02
     Exponent=  7.9040000000D+00 Coefficients=  1.2420000000D-01
     Exponent=  2.3050000000D+00 Coefficients=  3.9471400000D-01
     Exponent=  7.1710000000D-01 Coefficients=  6.2737600000D-01
 P 1 1.00
     Exponent=  2.1370000000D-01 Coefficients=  1.0000000000D+00
 ****
 Centers:       1      2      3      4      5      6      7      8      9     10
 Centers:      11     12     13     14     15     16     17     18     19
 S 3 1.00
     Exponent=  6.4220000000D+00 Coefficients= -3.9278820000D-01
     Exponent=  1.8260000000D+00 Coefficients=  7.7126430000D-01
     Exponent=  7.1350000000D-01 Coefficients=  4.9202280000D-01
 S 4 1.00
     Exponent=  6.4220000000D+00 Coefficients=  1.7868770000D-01
     Exponent=  1.8260000000D+00 Coefficients= -4.1940320000D-01
     Exponent=  7.1350000000D-01 Coefficients= -4.5681850000D-01
     Exponent=  1.0210000000D-01 Coefficients=  1.1035048000D+00
 S 1 1.00
     Exponent=  3.6300000000D-02 Coefficients=  1.0000000000D+00
 P 3 1.00
     Exponent=  1.9480000000D+01 Coefficients= -4.7028200000D-02
     Exponent=  2.3890000000D+00 Coefficients=  6.2488410000D-01
     Exponent=  7.7950000000D-01 Coefficients=  4.7225420000D-01
 P 1 1.00
     Exponent=  7.4000000000D-02 Coefficients=  1.0000000000D+00
 P 1 1.00
     Exponent=  2.2000000000D-02 Coefficients=  1.0000000000D+00
 D 4 1.00
     Exponent=  3.7080000000D+01 Coefficients=  3.2900000000D-02
     Exponent=  1.0100000000D+01 Coefficients=  1.7874180000D-01
     Exponent=  3.2200000000D+00 Coefficients=  4.4876570000D-01
     Exponent=  9.6280000000D-01 Coefficients=  5.8763610000D-01
 D 1 1.00
     Exponent=  2.2620000000D-01 Coefficients=  1.0000000000D+00
 ****
 Centers:      20     21     22     23     24     25
 S 3 1.00
     Exponent=  7.6200000000D+00 Coefficients= -4.0825500000D-01
     Exponent=  2.2940000000D+00 Coefficients=  7.4553080000D-01
     Exponent=  8.7600000000D-01 Coefficients=  5.3257210000D-01
 S 4 1.00
     Exponent=  7.6200000000D+00 Coefficients=  1.8725910000D-01
     Exponent=  2.2940000000D+00 Coefficients= -3.9669640000D-01
     Exponent=  8.7600000000D-01 Coefficients= -4.9540030000D-01
     Exponent=  1.1530000000D-01 Coefficients=  1.0844343000D+00
 S 1 1.00
     Exponent=  3.9600000000D-02 Coefficients=  1.0000000000D+00
 P 3 1.00
     Exponent=  2.3660000000D+01 Coefficients= -4.8155800000D-02
     Exponent=  2.8930000000D+00 Coefficients=  6.2584730000D-01
     Exponent=  9.4350000000D-01 Coefficients=  4.7151580000D-01
 P 1 1.00
     Exponent=  8.4000000000D-02 Coefficients=  1.0000000000D+00
 P 1 1.00
     Exponent=  2.4000000000D-02 Coefficients=  1.0000000000D+00
 D 4 1.00
     Exponent=  4.2720000000D+01 Coefficients=  3.7269900000D-02
     Exponent=  1.1760000000D+01 Coefficients=  1.9561030000D-01
     Exponent=  3.8170000000D+00 Coefficients=  4.5612730000D-01
     Exponent=  1.1690000000D+00 Coefficients=  5.6215870000D-01
 D 1 1.00
     Exponent=  2.8360000000D-01 Coefficients=  1.0000000000D+00
 ****
 ======================================================================================================
                                       Pseudopotential Parameters
 ======================================================================================================
  Center     Atomic      Valence      Angular      Power
  Number     Number     Electrons     Momentum     of R      Exponent        Coefficient   SO-Coeffient
 ======================================================================================================
    1         26           16
                                      D and up 
                                                     1      392.6149787      -10.00000000    0.00000000
                                                     2       71.1756979      -63.26675180    0.00000000
                                                     2       17.7320281      -10.96133380    0.00000000
                                      S - D
                                                     0      126.0571895        3.00000000    0.00000000
                                                     1      138.1264251       18.17291370    0.00000000
                                                     2       54.2098858      339.12311640    0.00000000
                                                     2        9.2837966      317.10680120    0.00000000
                                                     2        8.6289082     -207.34216490    0.00000000
                                      P - D
                                                     0       83.1759490        5.00000000    0.00000000
                                                     1      106.0559938        5.95359300    0.00000000
                                                     2       42.8284937      294.26655270    0.00000000
                                                     2        8.7701805      154.42446350    0.00000000
                                                     2        8.0397818      -95.31642490    0.00000000
    2         26           16
                                      D and up 
                                                     1      392.6149787      -10.00000000    0.00000000
                                                     2       71.1756979      -63.26675180    0.00000000
                                                     2       17.7320281      -10.96133380    0.00000000
                                      S - D
                                                     0      126.0571895        3.00000000    0.00000000
                                                     1      138.1264251       18.17291370    0.00000000
                                                     2       54.2098858      339.12311640    0.00000000
                                                     2        9.2837966      317.10680120    0.00000000
                                                     2        8.6289082     -207.34216490    0.00000000
                                      P - D
                                                     0       83.1759490        5.00000000    0.00000000
                                                     1      106.0559938        5.95359300    0.00000000
                                                     2       42.8284937      294.26655270    0.00000000
                                                     2        8.7701805      154.42446350    0.00000000
                                                     2        8.0397818      -95.31642490    0.00000000
    3         26           16
                                      D and up 
                                                     1      392.6149787      -10.00000000    0.00000000
                                                     2       71.1756979      -63.26675180    0.00000000
                                                     2       17.7320281      -10.96133380    0.00000000
                                      S - D
                                                     0      126.0571895        3.00000000    0.00000000
                                                     1      138.1264251       18.17291370    0.00000000
                                                     2       54.2098858      339.12311640    0.00000000
                                                     2        9.2837966      317.10680120    0.00000000
                                                     2        8.6289082     -207.34216490    0.00000000
                                      P - D
                                                     0       83.1759490        5.00000000    0.00000000
                                                     1      106.0559938        5.95359300    0.00000000
                                                     2       42.8284937      294.26655270    0.00000000
                                                     2        8.7701805      154.42446350    0.00000000
                                                     2        8.0397818      -95.31642490    0.00000000
    4         26           16
                                      D and up 
                                                     1      392.6149787      -10.00000000    0.00000000
                                                     2       71.1756979      -63.26675180    0.00000000
                                                     2       17.7320281      -10.96133380    0.00000000
                                      S - D
                                                     0      126.0571895        3.00000000    0.00000000
                                                     1      138.1264251       18.17291370    0.00000000
                                                     2       54.2098858      339.12311640    0.00000000
                                                     2        9.2837966      317.10680120    0.00000000
                                                     2        8.6289082     -207.34216490    0.00000000
                                      P - D
                                                     0       83.1759490        5.00000000    0.00000000
                                                     1      106.0559938        5.95359300    0.00000000
                                                     2       42.8284937      294.26655270    0.00000000
                                                     2        8.7701805      154.42446350    0.00000000
                                                     2        8.0397818      -95.31642490    0.00000000
    5         26           16
                                      D and up 
                                                     1      392.6149787      -10.00000000    0.00000000
                                                     2       71.1756979      -63.26675180    0.00000000
                                                     2       17.7320281      -10.96133380    0.00000000
                                      S - D
                                                     0      126.0571895        3.00000000    0.00000000
                                                     1      138.1264251       18.17291370    0.00000000
                                                     2       54.2098858      339.12311640    0.00000000
                                                     2        9.2837966      317.10680120    0.00000000
                                                     2        8.6289082     -207.34216490    0.00000000
                                      P - D
                                                     0       83.1759490        5.00000000    0.00000000
                                                     1      106.0559938        5.95359300    0.00000000
                                                     2       42.8284937      294.26655270    0.00000000
                                                     2        8.7701805      154.42446350    0.00000000
                                                     2        8.0397818      -95.31642490    0.00000000
    6         26           16
                                      D and up 
                                                     1      392.6149787      -10.00000000    0.00000000
                                                     2       71.1756979      -63.26675180    0.00000000
                                                     2       17.7320281      -10.96133380    0.00000000
                                      S - D
                                                     0      126.0571895        3.00000000    0.00000000
                                                     1      138.1264251       18.17291370    0.00000000
                                                     2       54.2098858      339.12311640    0.00000000
                                                     2        9.2837966      317.10680120    0.00000000
                                                     2        8.6289082     -207.34216490    0.00000000
                                      P - D
                                                     0       83.1759490        5.00000000    0.00000000
                                                     1      106.0559938        5.95359300    0.00000000
                                                     2       42.8284937      294.26655270    0.00000000
                                                     2        8.7701805      154.42446350    0.00000000
                                                     2        8.0397818      -95.31642490    0.00000000
    7         26           16
                                      D and up 
                                                     1      392.6149787      -10.00000000    0.00000000
                                                     2       71.1756979      -63.26675180    0.00000000
                                                     2       17.7320281      -10.96133380    0.00000000
                                      S - D
                                                     0      126.0571895        3.00000000    0.00000000
                                                     1      138.1264251       18.17291370    0.00000000
                                                     2       54.2098858      339.12311640    0.00000000
                                                     2        9.2837966      317.10680120    0.00000000
                                                     2        8.6289082     -207.34216490    0.00000000
                                      P - D
                                                     0       83.1759490        5.00000000    0.00000000
                                                     1      106.0559938        5.95359300    0.00000000
                                                     2       42.8284937      294.26655270    0.00000000
                                                     2        8.7701805      154.42446350    0.00000000
                                                     2        8.0397818      -95.31642490    0.00000000
    8         26           16
                                      D and up 
                                                     1      392.6149787      -10.00000000    0.00000000
                                                     2       71.1756979      -63.26675180    0.00000000
                                                     2       17.7320281      -10.96133380    0.00000000
                                      S - D
                                                     0      126.0571895        3.00000000    0.00000000
                                                     1      138.1264251       18.17291370    0.00000000
                                                     2       54.2098858      339.12311640    0.00000000
                                                     2        9.2837966      317.10680120    0.00000000
                                                     2        8.6289082     -207.34216490    0.00000000
                                      P - D
                                                     0       83.1759490        5.00000000    0.00000000
                                                     1      106.0559938        5.95359300    0.00000000
                                                     2       42.8284937      294.26655270    0.00000000
                                                     2        8.7701805      154.42446350    0.00000000
                                                     2        8.0397818      -95.31642490    0.00000000
    9         26           16
                                      D and up 
                                                     1      392.6149787      -10.00000000    0.00000000
                                                     2       71.1756979      -63.26675180    0.00000000
                                                     2       17.7320281      -10.96133380    0.00000000
                                      S - D
                                                     0      126.0571895        3.00000000    0.00000000
                                                     1      138.1264251       18.17291370    0.00000000
                                                     2       54.2098858      339.12311640    0.00000000
                                                     2        9.2837966      317.10680120    0.00000000
                                                     2        8.6289082     -207.34216490    0.00000000
                                      P - D
                                                     0       83.1759490        5.00000000    0.00000000
                                                     1      106.0559938        5.95359300    0.00000000
                                                     2       42.8284937      294.26655270    0.00000000
                                                     2        8.7701805      154.42446350    0.00000000
                                                     2        8.0397818      -95.31642490    0.00000000
   10         26           16
                                      D and up 
                                                     1      392.6149787      -10.00000000    0.00000000
                                                     2       71.1756979      -63.26675180    0.00000000
                                                     2       17.7320281      -10.96133380    0.00000000
                                      S - D
                                                     0      126.0571895        3.00000000    0.00000000
                                                     1      138.1264251       18.17291370    0.00000000
                                                     2       54.2098858      339.12311640    0.00000000
                                                     2        9.2837966      317.10680120    0.00000000
                                                     2        8.6289082     -207.34216490    0.00000000
                                      P - D
                                                     0       83.1759490        5.00000000    0.00000000
                                                     1      106.0559938        5.95359300    0.00000000
                                                     2       42.8284937      294.26655270    0.00000000
                                                     2        8.7701805      154.42446350    0.00000000
                                                     2        8.0397818      -95.31642490    0.00000000
   11         26           16
                                      D and up 
                                                     1      392.6149787      -10.00000000    0.00000000
                                                     2       71.1756979      -63.26675180    0.00000000
                                                     2       17.7320281      -10.96133380    0.00000000
                                      S - D
                                                     0      126.0571895        3.00000000    0.00000000
                                                     1      138.1264251       18.17291370    0.00000000
                                                     2       54.2098858      339.12311640    0.00000000
                                                     2        9.2837966      317.10680120    0.00000000
                                                     2        8.6289082     -207.34216490    0.00000000
                                      P - D
                                                     0       83.1759490        5.00000000    0.00000000
                                                     1      106.0559938        5.95359300    0.00000000
                                                     2       42.8284937      294.26655270    0.00000000
                                                     2        8.7701805      154.42446350    0.00000000
                                                     2        8.0397818      -95.31642490    0.00000000
   12         26           16
                                      D and up 
                                                     1      392.6149787      -10.00000000    0.00000000
                                                     2       71.1756979      -63.26675180    0.00000000
                                                     2       17.7320281      -10.96133380    0.00000000
                                      S - D
                                                     0      126.0571895        3.00000000    0.00000000
                                                     1      138.1264251       18.17291370    0.00000000
                                                     2       54.2098858      339.12311640    0.00000000
                                                     2        9.2837966      317.10680120    0.00000000
                                                     2        8.6289082     -207.34216490    0.00000000
                                      P - D
                                                     0       83.1759490        5.00000000    0.00000000
                                                     1      106.0559938        5.95359300    0.00000000
                                                     2       42.8284937      294.26655270    0.00000000
                                                     2        8.7701805      154.42446350    0.00000000
                                                     2        8.0397818      -95.31642490    0.00000000
   13         26           16
                                      D and up 
                                                     1      392.6149787      -10.00000000    0.00000000
                                                     2       71.1756979      -63.26675180    0.00000000
                                                     2       17.7320281      -10.96133380    0.00000000
                                      S - D
                                                     0      126.0571895        3.00000000    0.00000000
                                                     1      138.1264251       18.17291370    0.00000000
                                                     2       54.2098858      339.12311640    0.00000000
                                                     2        9.2837966      317.10680120    0.00000000
                                                     2        8.6289082     -207.34216490    0.00000000
                                      P - D
                                                     0       83.1759490        5.00000000    0.00000000
                                                     1      106.0559938        5.95359300    0.00000000
                                                     2       42.8284937      294.26655270    0.00000000
                                                     2        8.7701805      154.42446350    0.00000000
                                                     2        8.0397818      -95.31642490    0.00000000
   14         26           16
                                      D and up 
                                                     1      392.6149787      -10.00000000    0.00000000
                                                     2       71.1756979      -63.26675180    0.00000000
                                                     2       17.7320281      -10.96133380    0.00000000
                                      S - D
                                                     0      126.0571895        3.00000000    0.00000000
                                                     1      138.1264251       18.17291370    0.00000000
                                                     2       54.2098858      339.12311640    0.00000000
                                                     2        9.2837966      317.10680120    0.00000000
                                                     2        8.6289082     -207.34216490    0.00000000
                                      P - D
                                                     0       83.1759490        5.00000000    0.00000000
                                                     1      106.0559938        5.95359300    0.00000000
                                                     2       42.8284937      294.26655270    0.00000000
                                                     2        8.7701805      154.42446350    0.00000000
                                                     2        8.0397818      -95.31642490    0.00000000
   15         26           16
                                      D and up 
                                                     1      392.6149787      -10.00000000    0.00000000
                                                     2       71.1756979      -63.26675180    0.00000000
                                                     2       17.7320281      -10.96133380    0.00000000
                                      S - D
                                                     0      126.0571895        3.00000000    0.00000000
                                                     1      138.1264251       18.17291370    0.00000000
                                                     2       54.2098858      339.12311640    0.00000000
                                                     2        9.2837966      317.10680120    0.00000000
                                                     2        8.6289082     -207.34216490    0.00000000
                                      P - D
                                                     0       83.1759490        5.00000000    0.00000000
                                                     1      106.0559938        5.95359300    0.00000000
                                                     2       42.8284937      294.26655270    0.00000000
                                                     2        8.7701805      154.42446350    0.00000000
                                                     2        8.0397818      -95.31642490    0.00000000
   16         26           16
                                      D and up 
                                                     1      392.6149787      -10.00000000    0.00000000
                                                     2       71.1756979      -63.26675180    0.00000000
                                                     2       17.7320281      -10.96133380    0.00000000
                                      S - D
                                                     0      126.0571895        3.00000000    0.00000000
                                                     1      138.1264251       18.17291370    0.00000000
                                                     2       54.2098858      339.12311640    0.00000000
                                                     2        9.2837966      317.10680120    0.00000000
                                                     2        8.6289082     -207.34216490    0.00000000
                                      P - D
                                                     0       83.1759490        5.00000000    0.00000000
                                                     1      106.0559938        5.95359300    0.00000000
                                                     2       42.8284937      294.26655270    0.00000000
                                                     2        8.7701805      154.42446350    0.00000000
                                                     2        8.0397818      -95.31642490    0.00000000
   17         26           16
                                      D and up 
                                                     1      392.6149787      -10.00000000    0.00000000
                                                     2       71.1756979      -63.26675180    0.00000000
                                                     2       17.7320281      -10.96133380    0.00000000
                                      S - D
                                                     0      126.0571895        3.00000000    0.00000000
                                                     1      138.1264251       18.17291370    0.00000000
                                                     2       54.2098858      339.12311640    0.00000000
                                                     2        9.2837966      317.10680120    0.00000000
                                                     2        8.6289082     -207.34216490    0.00000000
                                      P - D
                                                     0       83.1759490        5.00000000    0.00000000
                                                     1      106.0559938        5.95359300    0.00000000
                                                     2       42.8284937      294.26655270    0.00000000
                                                     2        8.7701805      154.42446350    0.00000000
                                                     2        8.0397818      -95.31642490    0.00000000
   18         26           16
                                      D and up 
                                                     1      392.6149787      -10.00000000    0.00000000
                                                     2       71.1756979      -63.26675180    0.00000000
                                                     2       17.7320281      -10.96133380    0.00000000
                                      S - D
                                                     0      126.0571895        3.00000000    0.00000000
                                                     1      138.1264251       18.17291370    0.00000000
                                                     2       54.2098858      339.12311640    0.00000000
                                                     2        9.2837966      317.10680120    0.00000000
                                                     2        8.6289082     -207.34216490    0.00000000
                                      P - D
                                                     0       83.1759490        5.00000000    0.00000000
                                                     1      106.0559938        5.95359300    0.00000000
                                                     2       42.8284937      294.26655270    0.00000000
                                                     2        8.7701805      154.42446350    0.00000000
                                                     2        8.0397818      -95.31642490    0.00000000
   19         26           16
                                      D and up 
                                                     1      392.6149787      -10.00000000    0.00000000
                                                     2       71.1756979      -63.26675180    0.00000000
                                                     2       17.7320281      -10.96133380    0.00000000
                                      S - D
                                                     0      126.0571895        3.00000000    0.00000000
                                                     1      138.1264251       18.17291370    0.00000000
                                                     2       54.2098858      339.12311640    0.00000000
                                                     2        9.2837966      317.10680120    0.00000000
                                                     2        8.6289082     -207.34216490    0.00000000
                                      P - D
                                                     0       83.1759490        5.00000000    0.00000000
                                                     1      106.0559938        5.95359300    0.00000000
                                                     2       42.8284937      294.26655270    0.00000000
                                                     2        8.7701805      154.42446350    0.00000000
                                                     2        8.0397818      -95.31642490    0.00000000
   20         28           18
                                      D and up 
                                                     1      469.9324331      -10.00000000    0.00000000
                                                     2       85.4236411      -69.40848050    0.00000000
                                                     2       21.2674984      -12.09510200    0.00000000
                                      S - D
                                                     0      162.1686097        3.00000000    0.00000000
                                                     1      176.5333232       22.02536180    0.00000000
                                                     2       68.9562010      443.01810880    0.00000000
                                                     2       13.5792838      145.56964110    0.00000000
                                      P - D
                                                     0       69.0181506        5.00000000    0.00000000
                                                     1      275.5955596        4.98828240    0.00000000
                                                     2       47.1315453      256.69458530    0.00000000
                                                     2       12.9874075       78.47544500    0.00000000
   21         28           18
                                      D and up 
                                                     1      469.9324331      -10.00000000    0.00000000
                                                     2       85.4236411      -69.40848050    0.00000000
                                                     2       21.2674984      -12.09510200    0.00000000
                                      S - D
                                                     0      162.1686097        3.00000000    0.00000000
                                                     1      176.5333232       22.02536180    0.00000000
                                                     2       68.9562010      443.01810880    0.00000000
                                                     2       13.5792838      145.56964110    0.00000000
                                      P - D
                                                     0       69.0181506        5.00000000    0.00000000
                                                     1      275.5955596        4.98828240    0.00000000
                                                     2       47.1315453      256.69458530    0.00000000
                                                     2       12.9874075       78.47544500    0.00000000
   22         28           18
                                      D and up 
                                                     1      469.9324331      -10.00000000    0.00000000
                                                     2       85.4236411      -69.40848050    0.00000000
                                                     2       21.2674984      -12.09510200    0.00000000
                                      S - D
                                                     0      162.1686097        3.00000000    0.00000000
                                                     1      176.5333232       22.02536180    0.00000000
                                                     2       68.9562010      443.01810880    0.00000000
                                                     2       13.5792838      145.56964110    0.00000000
                                      P - D
                                                     0       69.0181506        5.00000000    0.00000000
                                                     1      275.5955596        4.98828240    0.00000000
                                                     2       47.1315453      256.69458530    0.00000000
                                                     2       12.9874075       78.47544500    0.00000000
   23         28           18
                                      D and up 
                                                     1      469.9324331      -10.00000000    0.00000000
                                                     2       85.4236411      -69.40848050    0.00000000
                                                     2       21.2674984      -12.09510200    0.00000000
                                      S - D
                                                     0      162.1686097        3.00000000    0.00000000
                                                     1      176.5333232       22.02536180    0.00000000
                                                     2       68.9562010      443.01810880    0.00000000
                                                     2       13.5792838      145.56964110    0.00000000
                                      P - D
                                                     0       69.0181506        5.00000000    0.00000000
                                                     1      275.5955596        4.98828240    0.00000000
                                                     2       47.1315453      256.69458530    0.00000000
                                                     2       12.9874075       78.47544500    0.00000000
   24         28           18
                                      D and up 
                                                     1      469.9324331      -10.00000000    0.00000000
                                                     2       85.4236411      -69.40848050    0.00000000
                                                     2       21.2674984      -12.09510200    0.00000000
                                      S - D
                                                     0      162.1686097        3.00000000    0.00000000
                                                     1      176.5333232       22.02536180    0.00000000
                                                     2       68.9562010      443.01810880    0.00000000
                                                     2       13.5792838      145.56964110    0.00000000
                                      P - D
                                                     0       69.0181506        5.00000000    0.00000000
                                                     1      275.5955596        4.98828240    0.00000000
                                                     2       47.1315453      256.69458530    0.00000000
                                                     2       12.9874075       78.47544500    0.00000000
   25         28           18
                                      D and up 
                                                     1      469.9324331      -10.00000000    0.00000000
                                                     2       85.4236411      -69.40848050    0.00000000
                                                     2       21.2674984      -12.09510200    0.00000000
                                      S - D
                                                     0      162.1686097        3.00000000    0.00000000
                                                     1      176.5333232       22.02536180    0.00000000
                                                     2       68.9562010      443.01810880    0.00000000
                                                     2       13.5792838      145.56964110    0.00000000
                                      P - D
                                                     0       69.0181506        5.00000000    0.00000000
                                                     1      275.5955596        4.98828240    0.00000000
                                                     2       47.1315453      256.69458530    0.00000000
                                                     2       12.9874075       78.47544500    0.00000000
   26          8
                                   No pseudopotential on this center.
   27          8
                                   No pseudopotential on this center.
   28          8
                                   No pseudopotential on this center.
   29          8
                                   No pseudopotential on this center.
   30          8
                                   No pseudopotential on this center.
   31          8
                                   No pseudopotential on this center.
   32          8
                                   No pseudopotential on this center.
   33          8
                                   No pseudopotential on this center.
   34          8
                                   No pseudopotential on this center.
   35          8
                                   No pseudopotential on this center.
   36          8
                                   No pseudopotential on this center.
   37          8
                                   No pseudopotential on this center.
   38          8
                                   No pseudopotential on this center.
   39          8
                                   No pseudopotential on this center.
   40          8
                                   No pseudopotential on this center.
   41          8
                                   No pseudopotential on this center.
   42          8
                                   No pseudopotential on this center.
   43          8
                                   No pseudopotential on this center.
   44          8
                                   No pseudopotential on this center.
   45          8
                                   No pseudopotential on this center.
   46          8
                                   No pseudopotential on this center.
   47          8
                                   No pseudopotential on this center.
   48          8
                                   No pseudopotential on this center.
   49          8
                                   No pseudopotential on this center.
   50          8
                                   No pseudopotential on this center.
   51          8
                                   No pseudopotential on this center.
   52          8
                                   No pseudopotential on this center.
   53          8
                                   No pseudopotential on this center.
   54          8
                                   No pseudopotential on this center.
   55          8
                                   No pseudopotential on this center.
   56          8
                                   No pseudopotential on this center.
   57          8
                                   No pseudopotential on this center.
   58          8
                                   No pseudopotential on this center.
   59          8
                                   No pseudopotential on this center.
   60          8
                                   No pseudopotential on this center.
   61          8
                                   No pseudopotential on this center.
   62          8
                                   No pseudopotential on this center.
   63          8
                                   No pseudopotential on this center.
 ======================================================================================================
 Ernie: Thresh=  0.10000D-02 Tol=  0.10000D-05 Strict=F.
 Ernie:  25 primitive shells out of 1020 were deleted.
 There are   942 symmetry adapted cartesian basis functions of A   symmetry.
 There are   892 symmetry adapted basis functions of A   symmetry.
   892 basis functions,  2250 primitive gaussians,   942 cartesian basis functions
   358 alpha electrons      358 beta electrons
       nuclear repulsion energy     27286.8140012580 Hartrees.
 IExCor= 1009 DFT=T Ex+Corr=PBE1PBE ExCW=0 ScaHFX=  0.250000
 ScaDFX=  0.750000  0.750000  1.000000  1.000000 ScalE2=  1.000000  1.000000
 IRadAn=      5 IRanWt=     -1 IRanGd=            0 ICorTp=0 IEmpDi=  4
 NAtoms=   63 NActive=   63 NUniq=   63 SFac= 1.00D+00 NAtFMM=   60 NAOKFM=T Big=T
 Integral buffers will be    131072 words long.
 Raffenetti 2 integral format.
 Two-electron integral symmetry is turned on.
 Leave Link  301 at Wed Oct  8 08:04:44 2025, MaxMem=  4294967296 cpu:               0.3 elap:               0.0
 (Enter /opt/modules/software/gaussian/G16-C01/l302.exe)
 NPDir=0 NMtPBC=     1 NCelOv=     1 NCel=       1 NClECP=     1 NCelD=      1
         NCelK=      1 NCelE2=     1 NClLst=     1 CellRange=     0.0.
 One-electron integrals computed using PRISM.
 One-electron integral symmetry used in STVInt
   1 Symmetry operations used in ECPInt.
 ECPInt:  NShTT=   76245 NPrTT=  496949 LenC2=   66727 LenP2D=  230763.
 LDataN:  DoStor=T MaxTD1= 4 Len=   56
 NBasis=   892 RedAO= T EigKep=  1.07D-05  NBF=   892
 NBsUse=   892 1.00D-06 EigRej= -1.00D+00 NBFU=   892
 Precomputing XC quadrature grid using
 IXCGrd= 4 IRadAn=           5 IRanWt=          -1 IRanGd=           0 AccXCQ= 0.00D+00.
 Generated NRdTot=       0 NPtTot=           0 NUsed=           0 NTot=          32
 NSgBfM=   942   940   940   940   942 MxSgAt=    63 MxSgA2=    63.
 Leave Link  302 at Wed Oct  8 08:04:49 2025, MaxMem=  4294967296 cpu:              37.7 elap:               4.7
 (Enter /opt/modules/software/gaussian/G16-C01/l303.exe)
 DipDrv:  MaxL=1.
 Leave Link  303 at Wed Oct  8 08:04:49 2025, MaxMem=  4294967296 cpu:               1.1 elap:               0.2
 (Enter /opt/modules/software/gaussian/G16-C01/l401.exe)
 ExpMin= 2.20D-02 ExpMax= 7.82D+03 ExpMxC= 2.73D+02 IAcc=3 IRadAn=         5 AccDes= 0.00D+00
 Harris functional with IExCor= 1009 and IRadAn=       5 diagonalized for initial guess.
 HarFok:  IExCor= 1009 AccDes= 0.00D+00 IRadAn=         5 IDoV= 1 UseB2=F ITyADJ=14
 ICtDFT=  3500011 ScaDFX=  1.000000  1.000000  1.000000  1.000000
 FoFCou: FMM=F IPFlag=           0 FMFlag=      100000 FMFlg1=        2001
         NFxFlg=           0 DoJE=T BraDBF=F KetDBF=T FulRan=T
         wScrn=  0.000000 ICntrl=       500 IOpCl=  0 I1Cent=   200000004 NGrid=           0
         NMat0=    1 NMatS0=      1 NMatT0=    0 NMatD0=    1 NMtDS0=    0 NMtDT0=    0
 Petite list used in FoFCou.
 Harris En= -6222.06098797652    
 JPrj=0 DoOrth=F DoCkMO=F.
 Leave Link  401 at Wed Oct  8 08:04:59 2025, MaxMem=  4294967296 cpu:              82.1 elap:              10.4
 (Enter /opt/modules/software/gaussian/G16-C01/l508.exe)
 Integral symmetry usage will be decided dynamically.
 Tight linear equation convergence will be used.
 RPBE1PBE wavefunction.
 Quadratic Convergence SCF Method.
 Line search only if initial step raises energy.
 Fock matrices will be formed incrementally for  20 cycles.
 FoFJK:  IHMeth= 1 ICntrl=       0 DoSepK=F KAlg= 0 I1Cent=           0 FoldK=F
 IRaf= 990000000 NMat=       1 IRICut=       1 DoRegI=T DoRafI=F ISym2E= 1 IDoP0=0 IntGTp=1.
 FoFCou: FMM=T IPFlag=           0 FMFlag=      100000 FMFlg1=        2001
         NFxFlg=           0 DoJE=F BraDBF=F KetDBF=F FulRan=T
         wScrn=  0.000000 ICntrl=         0 IOpCl=  0 I1Cent=           0 NGrid=           0
         NMat0=    1 NMatS0=      1 NMatT0=    0 NMatD0=    1 NMtDS0=    0 NMtDT0=    0
 Petite list used in FoFCou.
 FMM levels:  10  Number of levels for PrismC:   9
 Iteration   1 EE= -6067.41127138129                                    Grad=2.042D+01 Max rot=  116.5286 deg.
 Gradient too large for Newton-Raphson or scaled steepest descent --
 use steepest descent instead.
     ILin= 1 X=0.000D+00 Y=-6.067411271381D+03 DE= 0.00D+00 F= -8.34D+02
 RMSU=  1.05D-01    CP:  3.00D+00
     ILin= 2 X=2.000D-01 Y=-6.182287428659D+03 DE=-1.15D+02 F= -2.36D+02 OKLS=F
 RMSU=  4.84D-02    CP:  3.00D+00  1.49D+00
     ILin= 3 X=2.427D-01 Y=-6.189347608597D+03 DE=-1.22D+02 F= -9.85D+01
 RMSU=  5.51D-02    CP:  3.00D+00  2.97D+00  3.00D+00
     ILin= 4 X=3.433D-01 Y=-6.187186335625D+03 DE=-1.20D+02 F=  1.13D+02
     An  expanding polynomial of degree  4 produced  0.2830
 RMSU=  1.07D-03    CP:  3.00D+00  2.02D+00  2.13D+00  1.61D-03
 Iteration   2 EE= -6191.10519290408     Delta-E=     -123.693921522790 Grad=1.045D+01 Max rot=  100.2448 deg.
 Gradient too large for Newton-Raphson or scaled steepest descent --
 use steepest descent instead.
     ILin= 1 X=0.000D+00 Y=-6.191105192904D+03 DE= 0.00D+00 F= -2.18D+02
 RMSU=  1.45D+00    CP:  3.00D+00  3.00D+00  3.00D+00  3.00D+00  3.00D+00
     ILin= 2 X=2.000D-01 Y=-6.167036551359D+03 DE= 2.41D+01 F=  4.30D+02 OKLS=T
     Reject lnstep IMin12=  1  2 Big=F Turn=F Min= 1.053D-01 FVal=-6.258282868067D+03 Lims=  0.00D+00  2.00D-01
 RMSU=  1.69D-01    CP:  3.00D+00  2.23D+00  2.25D+00  5.53D-02  3.00D+00
                    CP:  9.43D-02
     ILin= 3 X=1.000D-01 Y=-6.195535804074D+03 DE=-4.43D+00 F=  1.28D+02
     A contracting polynomial of degree  3 produced  0.0635
 RMSU=  4.10D-02    CP:  3.00D+00  9.69D-01  6.19D-01  6.72D-03  3.00D+00
                    CP:  2.52D-02  3.92D-01
 Iteration   3 EE= -6197.93820777841     Delta-E=       -6.833014874326 Grad=9.319D+00 Max rot=  205.0475 deg.
 Gradient too large for Newton-Raphson -- use scaled steepest descent instead.
 Alpha Gap=     0.171 HL deriv= 4.83D-02
     ILin= 1 X=0.000D+00 Y=-6.197938207778D+03 DE= 0.00D+00 F= -8.13D+01
 RMSU=  5.47D-03    CP:  3.00D+00  9.01D-01  4.55D-01  7.48D-03  3.00D+00
                    CP:  2.05D-02  3.32D-01  9.14D-01
     ILin= 2 X=9.754D-02 Y=-6.203222335178D+03 DE=-5.28D+00 F= -2.75D+01 OKLS=F
 RMSU=  3.31D-04    CP:  3.00D+00  8.75D-01  3.95D-01  7.82D-03  3.00D+00
                    CP:  1.86D-02  3.08D-01  8.80D-01  1.40D+00
     ILin= 3 X=1.379D-01 Y=-6.203924195768D+03 DE=-5.99D+00 F= -7.72D+00
 RMSU=  1.47D-04    CP:  3.00D+00  8.39D-01  3.19D-01  8.30D-03  3.00D+00
                    CP:  1.61D-02  2.76D-01  8.35D-01  1.94D+00  3.00D+00
     ILin= 4 X=1.951D-01 Y=-6.203693529975D+03 DE=-5.76D+00 F=  1.45D+01
     An  expanding polynomial of degree  4 produced  0.1563
 RMSU=  1.03D-05    CP:  3.00D+00  8.63D-01  3.70D-01  7.98D-03  3.00D+00
                    CP:  1.78D-02  2.97D-01  8.65D-01  1.57D+00  1.64D+00
                    CP:  4.37D-02
 Iteration   4 EE= -6203.99169632765     Delta-E=       -6.053488549245 Grad=7.672D+00 Max rot=  168.7542 deg.
 Gradient too large for Newton-Raphson -- use scaled steepest descent instead.
 Alpha Gap=    -0.046 HL deriv= 1.94D-03
     ILin= 1 X=0.000D+00 Y=-6.203991696328D+03 DE= 0.00D+00 F= -3.23D+01
 RMSU=  2.21D-03    CP:  2.99D+00  7.10D-01 -3.37D-02  8.55D-03  3.00D+00
                    CP:  1.44D-02  2.45D-01  7.30D-01  1.63D+00 -1.41D+00
                    CP:  1.35D+00  3.00D+00
     ILin= 2 X=1.000D-01 Y=-6.206039705055D+03 DE=-2.05D+00 F= -8.52D+00 OKLS=F
 RMSU=  2.15D-03    CP:  2.61D+00  5.77D-01 -3.19D-02  4.93D-03  2.71D+00
                    CP:  1.11D-02  1.96D-01  6.21D-01  1.54D+00 -3.00D+00
                    CP:  7.85D-01  3.00D+00  1.58D+00
     ILin= 3 X=2.000D-01 Y=-6.205708741194D+03 DE=-1.72D+00 F=  1.49D+01
     An  expanding polynomial of degree  3 produced  0.1361
 RMSU=  8.46D-05    CP:  2.85D+00  6.60D-01 -3.31D-02  7.17D-03  3.00D+00
                    CP:  1.32D-02  2.27D-01  6.90D-01  1.60D+00 -2.39D+00
                    CP:  1.75D+00  3.00D+00  1.20D+00  4.22D-01
 Iteration   5 EE= -6206.19179943826     Delta-E=       -2.200103110612 Grad=6.375D+00 Max rot=  147.4620 deg.
 Gradient too large for Newton-Raphson -- use scaled steepest descent instead.
 Alpha Gap=     0.142 HL deriv= 3.65D-02
     ILin= 1 X=0.000D+00 Y=-6.206191799438D+03 DE= 0.00D+00 F= -2.24D+01
 RMSU=  1.98D-03    CP:  2.63D+00  5.87D-01 -3.18D-02  5.42D-03  3.00D+00
                    CP:  1.05D-02  1.90D-01  6.29D-01  1.76D+00 -3.00D+00
                    CP:  7.77D-01  3.00D+00  1.24D+00  8.38D-01  3.00D+00
     ILin= 2 X=1.000D-01 Y=-6.207533636695D+03 DE=-1.34D+00 F= -4.31D+00 OKLS=F
 RMSU=  2.83D-04    CP:  2.42D+00  5.20D-01 -3.02D-02  3.98D-03  2.13D+00
                    CP:  8.13D-03  1.57D-01  5.64D-01  1.93D+00 -3.00D+00
                    CP: -4.89D-01  3.00D+00  1.35D+00  8.00D-01  3.00D+00
                    CP:  1.94D+00
     ILin= 3 X=2.000D-01 Y=-6.207059928776D+03 DE=-8.68D-01 F=  1.36D+01
     An  expanding polynomial of degree  3 produced  0.1239
 RMSU=  1.26D-05    CP:  2.57D+00  5.70D-01 -3.14D-02  5.05D-03  2.77D+00
                    CP:  9.88D-03  1.82D-01  6.13D-01  1.81D+00 -3.00D+00
                    CP:  4.25D-01  3.00D+00  1.27D+00  8.29D-01  3.00D+00
                    CP:  1.23D+00  1.61D-01
 Iteration   6 EE= -6207.58428377910     Delta-E=       -1.392484340839 Grad=5.737D+00 Max rot=  127.8772 deg.
 Gradient too large for Newton-Raphson -- use scaled steepest descent instead.
 Alpha Gap=     0.008 HL deriv= 1.92D-02
     ILin= 1 X=0.000D+00 Y=-6.207584283779D+03 DE= 0.00D+00 F= -1.64D+01
 RMSU=  8.43D-04    CP:  2.29D+00  4.79D-01 -2.97D-02  2.70D-03  1.38D+00
                    CP:  8.03D-03  1.50D-01  5.16D-01  1.71D+00 -3.00D+00
                    CP: -3.00D+00  3.00D+00  1.65D+00  9.24D-01  3.00D+00
                    CP:  1.17D+00  5.15D-01  2.20D+00
     ILin= 2 X=1.000D-01 Y=-6.208607910760D+03 DE=-1.02D+00 F= -4.07D+00 OKLS=F
 RMSU=  4.15D-04    CP:  2.03D+00  3.97D-01 -2.78D-02  7.01D-04  2.08D-01
                    CP:  6.38D-03  1.21D-01  4.26D-01  1.59D+00 -3.00D+00
                    CP: -3.00D+00  3.00D+00  1.96D+00  1.00D+00  3.00D+00
                    CP:  1.08D+00  9.92D-01 -1.01D+00  2.04D+00
     ILin= 3 X=2.000D-01 Y=-6.208404292732D+03 DE=-8.20D-01 F=  8.07D+00
     An  expanding polynomial of degree  3 produced  0.1334
 Restarting incremental Fock formation.
 Iteration   7 EE= -6208.67527351059     Delta-E=       -1.090989731492 Grad=4.846D+00 Max rot=  111.8520 deg.
 Gradient too large for Newton-Raphson -- use scaled steepest descent instead.
 Alpha Gap=     0.092 HL deriv= 7.16D-02
     ILin= 1 X=0.000D+00 Y=-6.208675273511D+03 DE= 0.00D+00 F= -1.52D+01
 RMSU=  3.92D-03    CP:  9.26D-01
     ILin= 2 X=1.000D-01 Y=-6.209343815837D+03 DE=-6.69D-01 F=  1.93D+00 OKLS=F
 RMSU=  3.10D-04    CP:  8.59D-01  1.90D+00
     ILin= 3 X=2.000D-01 Y=-6.208312575666D+03 DE= 3.63D-01 F=  1.84D+01
     An  expanding polynomial of degree  3 produced  0.0893
 RMSU=  9.25D-07    CP:  9.34D-01  8.98D-01 -4.88D-02
 Iteration   8 EE= -6209.35458097231     Delta-E=       -0.679307461716 Grad=4.459D+00 Max rot=  101.2864 deg.
 Gradient too large for Newton-Raphson -- use scaled steepest descent instead.
 Alpha Gap=     0.072 HL deriv= 2.33D-02
     ILin= 1 X=0.000D+00 Y=-6.209354580972D+03 DE= 0.00D+00 F= -8.73D+00
 RMSU=  1.78D-03    CP:  8.44D-01  1.49D+00 -1.49D+00  3.00D+00
     ILin= 2 X=1.000D-01 Y=-6.209931847158D+03 DE=-5.77D-01 F= -2.81D+00 OKLS=F
 RMSU=  1.53D-04    CP:  7.61D-01  2.01D+00 -2.52D+00  3.00D+00  1.95D+00
     ILin= 3 X=2.000D-01 Y=-6.209919250985D+03 DE=-5.65D-01 F=  3.04D+00
     An  expanding polynomial of degree  3 produced  0.1479
 RMSU=  4.29D-07    CP:  8.03D-01  1.75D+00 -2.03D+00  3.00D+00  1.46D+00
                    CP:  3.54D-01
 Iteration   9 EE= -6209.99893125319     Delta-E=       -0.644350280883 Grad=3.810D+00 Max rot=   86.5495 deg.
 Gradient too large for Newton-Raphson -- use scaled steepest descent instead.
 Alpha Gap=     0.051 HL deriv= 8.76D-02
     ILin= 1 X=0.000D+00 Y=-6.209998931253D+03 DE= 0.00D+00 F= -1.24D+01
 RMSU=  7.34D-04    CP:  7.53D-01  2.44D+00 -1.24D+00  3.00D+00  1.41D+00
                    CP:  1.48D+00 -3.00D+00
     ILin= 2 X=1.000D-01 Y=-6.210382051677D+03 DE=-3.83D-01 F=  4.70D+00 OKLS=T
     Accept linear search using points  1 and  2.
     An  expanding polynomial of degree  2 produced  0.0417
 RMSU=  1.11D-05    CP:  7.82D-01  2.05D+00 -1.79D+00  3.00D+00  1.44D+00
                    CP:  8.26D-01 -3.00D+00  4.18D-01
 Iteration  10 EE= -6210.36769079015     Delta-E=       -0.368759536956 Grad=3.579D+00 Max rot=   82.8448 deg.
 Gradient too large for Newton-Raphson -- use scaled steepest descent instead.
 Alpha Gap=     0.081 HL deriv= 2.70D-02
     ILin= 1 X=0.000D+00 Y=-6.210367690790D+03 DE= 0.00D+00 F= -4.20D+00
 RMSU=  2.41D-04    CP:  7.28D-01  2.56D+00 -1.81D+00  3.00D+00  1.83D+00
                    CP:  2.16D+00 -3.00D+00  9.82D-01 -1.47D+00
     ILin= 2 X=1.000D-01 Y=-6.210742733521D+03 DE=-3.75D-01 F= -3.30D+00 OKLS=F
 RMSU=  1.85D-04    CP:  6.78D-01  3.00D+00 -1.55D+00  3.00D+00  2.20D+00
                    CP:  3.00D+00 -3.00D+00  1.54D+00 -3.00D+00  1.98D+00
     ILin= 3 X=2.000D-01 Y=-6.211028206982D+03 DE=-6.61D-01 F= -2.41D+00
 RMSU=  1.40D-03    CP:  6.33D-01  3.00D+00 -1.02D+00  3.00D+00  2.54D+00
                    CP:  3.00D+00 -3.00D+00  2.11D+00 -3.00D+00  2.93D+00
                    CP:  3.00D+00
     ILin= 4 X=3.000D-01 Y=-6.211224788264D+03 DE=-8.57D-01 F= -1.53D+00
 RMSU=  4.15D-04    CP:  5.92D-01  3.00D+00 -2.28D-01  3.00D+00  2.87D+00
                    CP:  3.00D+00 -3.00D+00  2.66D+00 -3.00D+00  3.00D+00
                    CP:  3.00D+00  2.03D+00
     ILin= 5 X=4.000D-01 Y=-6.211334630505D+03 DE=-9.67D-01 F= -6.75D-01
 RMSU=  1.41D-03    CP:  5.23D-01  3.00D+00  2.14D+00  3.00D+00  3.00D+00
                    CP:  3.00D+00 -3.00D+00  3.00D+00 -3.00D+00  3.00D+00
                    CP:  3.00D+00  3.00D+00  3.00D+00
     ILin= 6 X=6.000D-01 Y=-6.211309401962D+03 DE=-9.42D-01 F=  8.92D-01
     An  expanding polynomial of degree  6 produced  0.4829
 RMSU=  1.76D-04    CP:  5.61D-01  3.00D+00  6.29D-01  3.00D+00  3.00D+00
                    CP:  3.00D+00 -3.00D+00  3.00D+00 -3.00D+00  3.00D+00
                    CP:  3.00D+00  2.78D+00  1.97D+00  1.25D-01
 Iteration  11 EE= -6211.36241040980     Delta-E=       -0.994719619652 Grad=2.290D+00 Max rot=   42.4066 deg.
 Gradient too large for Newton-Raphson -- use scaled steepest descent instead.
 Alpha Gap=     0.083 HL deriv= 8.34D-02
     ILin= 1 X=0.000D+00 Y=-6.211362410410D+03 DE= 0.00D+00 F= -1.53D+01
 RMSU=  7.51D-03    CP:  4.46D-01  3.00D+00 -3.89D-01  3.00D+00  3.00D+00
                    CP:  3.00D+00 -3.00D+00  1.86D-01 -3.00D+00  1.43D+00
[...]
                 (A) (A) (A) (A) (A) (A) (A) (A) (A) (A) (A) (A)
                 (A) (A) (A) (A) (A) (A) (A) (A) (A) (A) (A) (A)
                 (A) (A) (A) (A) (A) (A) (A) (A) (A) (A) (A) (A)
                 (A) (A) (A) (A) (A) (A) (A) (A) (A) (A) (A) (A)
                 (A) (A) (A) (A) (A) (A) (A) (A) (A) (A) (A) (A)
                 (A) (A) (A) (A) (A) (A) (A) (A) (A) (A) (A) (A)
                 (A) (A) (A) (A) (A) (A) (A) (A) (A) (A) (A) (A)
                 (A) (A) (A) (A) (A) (A) (A) (A) (A) (A) (A) (A)
                 (A) (A) (A) (A) (A) (A) (A) (A) (A) (A) (A) (A)
                 (A) (A) (A) (A) (A) (A)
 The electronic state is 1-A.
 Alpha  occ. eigenvalues --  -19.25881 -19.25849 -19.25830 -19.25823 -19.25817
 Alpha  occ. eigenvalues --  -19.25806 -19.24855 -19.24853 -19.24827 -19.24824
 Alpha  occ. eigenvalues --  -19.24824 -19.24822 -19.24563 -19.24557 -19.24552
 Alpha  occ. eigenvalues --  -19.24551 -19.24547 -19.24536 -19.24523 -19.24510
 Alpha  occ. eigenvalues --  -19.24510 -19.24505 -19.24488 -19.24471 -19.23531
 Alpha  occ. eigenvalues --  -19.23527 -19.23503 -19.23498 -19.23495 -19.23486
 Alpha  occ. eigenvalues --  -19.23481 -19.23472 -19.23462 -19.23436 -19.23428
 Alpha  occ. eigenvalues --  -19.23379 -19.21536 -19.21492  -4.17146  -4.17135
 Alpha  occ. eigenvalues --   -4.17107  -4.17107  -4.17072  -4.17045  -3.62013
 Alpha  occ. eigenvalues --   -3.61979  -3.61974  -3.61962  -3.61955  -3.61892
 Alpha  occ. eigenvalues --   -3.56901  -3.56894  -3.56893  -3.56890  -3.56885
 Alpha  occ. eigenvalues --   -3.56884  -3.56883  -3.56876  -3.56873  -3.56860
 Alpha  occ. eigenvalues --   -3.56859  -3.56815  -3.56391  -2.77099  -2.77085
 Alpha  occ. eigenvalues --   -2.77070  -2.77023  -2.77014  -2.76962  -2.76319
 Alpha  occ. eigenvalues --   -2.76267  -2.76233  -2.76224  -2.76220  -2.76216
 Alpha  occ. eigenvalues --   -2.74096  -2.74076  -2.74032  -2.74020  -2.73993
 Alpha  occ. eigenvalues --   -2.73970  -2.39521  -2.39479  -2.39457  -2.39443
 Alpha  occ. eigenvalues --   -2.39437  -2.39376  -2.38541  -2.38528  -2.38513
 Alpha  occ. eigenvalues --   -2.38505  -2.38499  -2.38455  -2.36034  -2.35993
 Alpha  occ. eigenvalues --   -2.35957  -2.35932  -2.35930  -2.35862  -2.33977
 Alpha  occ. eigenvalues --   -2.33969  -2.33969  -2.33963  -2.33952  -2.33931
 Alpha  occ. eigenvalues --   -2.33924  -2.33923  -2.33921  -2.33911  -2.33903
 Alpha  occ. eigenvalues --   -2.33857  -2.33282  -2.33278  -2.33272  -2.33269
 Alpha  occ. eigenvalues --   -2.33266  -2.33261  -2.33253  -2.33251  -2.33241
 Alpha  occ. eigenvalues --   -2.33229  -2.33228  -2.33191  -2.32960  -2.32953
 Alpha  occ. eigenvalues --   -2.32951  -2.32947  -2.32944  -2.32940  -2.32938
 Alpha  occ. eigenvalues --   -2.32933  -2.32928  -2.32927  -2.32920  -2.32917
 Alpha  occ. eigenvalues --   -2.32881  -2.32624  -2.32620  -0.98916  -0.97546
 Alpha  occ. eigenvalues --   -0.96832  -0.96810  -0.96326  -0.96306  -0.96044
 Alpha  occ. eigenvalues --   -0.96017  -0.95967  -0.95921  -0.95777  -0.95753
 Alpha  occ. eigenvalues --   -0.91911  -0.91890  -0.91866  -0.91793  -0.91782
 Alpha  occ. eigenvalues --   -0.91646  -0.91520  -0.91364  -0.91348  -0.91220
 Alpha  occ. eigenvalues --   -0.91211  -0.91160  -0.91018  -0.90904  -0.90484
 Alpha  occ. eigenvalues --   -0.90465  -0.90431  -0.90415  -0.90101  -0.90040
 Alpha  occ. eigenvalues --   -0.89687  -0.89668  -0.89657  -0.89636  -0.89503
 Alpha  occ. eigenvalues --   -0.89478  -0.48816  -0.47298  -0.46097  -0.46087
 Alpha  occ. eigenvalues --   -0.45413  -0.45371  -0.45192  -0.45122  -0.45088
 Alpha  occ. eigenvalues --   -0.45008  -0.44848  -0.44832  -0.44579  -0.44118
 Alpha  occ. eigenvalues --   -0.43830  -0.43797  -0.43767  -0.43039  -0.43030
 Alpha  occ. eigenvalues --   -0.42236  -0.42221  -0.42108  -0.42046  -0.42041
 Alpha  occ. eigenvalues --   -0.41691  -0.41663  -0.41628  -0.41285  -0.41018
 Alpha  occ. eigenvalues --   -0.41010  -0.40705  -0.40654  -0.40649  -0.40385
 Alpha  occ. eigenvalues --   -0.40297  -0.40271  -0.40129  -0.40078  -0.40067
 Alpha  occ. eigenvalues --   -0.39792  -0.39772  -0.39419  -0.39324  -0.39312
 Alpha  occ. eigenvalues --   -0.39140  -0.39063  -0.38969  -0.38961  -0.38462
 Alpha  occ. eigenvalues --   -0.38300  -0.38292  -0.38195  -0.38184  -0.37622
 Alpha  occ. eigenvalues --   -0.37577  -0.37454  -0.37445  -0.37265  -0.37257
 Alpha  occ. eigenvalues --   -0.37233  -0.37220  -0.37125  -0.36877  -0.36646
 Alpha  occ. eigenvalues --   -0.36613  -0.36608  -0.36334  -0.36327  -0.36221
 Alpha  occ. eigenvalues --   -0.36200  -0.35730  -0.35726  -0.35320  -0.35305
 Alpha  occ. eigenvalues --   -0.35193  -0.35188  -0.34679  -0.34610  -0.34603
 Alpha  occ. eigenvalues --   -0.34528  -0.34462  -0.34459  -0.34183  -0.34041
 Alpha  occ. eigenvalues --   -0.34035  -0.33907  -0.33617  -0.33607  -0.33602
 Alpha  occ. eigenvalues --   -0.33597  -0.33492  -0.33451  -0.33123  -0.33115
 Alpha  occ. eigenvalues --   -0.33035  -0.32892  -0.32886  -0.32858  -0.32849
 Alpha  occ. eigenvalues --   -0.32848  -0.32836  -0.32401  -0.32313  -0.32191
 Alpha  occ. eigenvalues --   -0.32168  -0.32007  -0.31795  -0.31790  -0.31713
 Alpha  occ. eigenvalues --   -0.31709  -0.31614  -0.31608  -0.31528  -0.31417
 Alpha  occ. eigenvalues --   -0.31354  -0.31321  -0.31315  -0.31199  -0.31099
 Alpha  occ. eigenvalues --   -0.31087  -0.30983  -0.30973  -0.30958  -0.30943
 Alpha  occ. eigenvalues --   -0.30513  -0.30505  -0.30358  -0.30273  -0.30205
 Alpha  occ. eigenvalues --   -0.30187  -0.30117  -0.30037  -0.30022  -0.29915
 Alpha  occ. eigenvalues --   -0.29843  -0.29719  -0.29706  -0.29526  -0.29515
 Alpha  occ. eigenvalues --   -0.29414  -0.29410  -0.29201  -0.29196  -0.29137
 Alpha  occ. eigenvalues --   -0.29129  -0.29017  -0.29005  -0.28882  -0.28638
 Alpha  occ. eigenvalues --   -0.28556  -0.28542  -0.28496  -0.28492  -0.28473
 Alpha  occ. eigenvalues --   -0.28455  -0.28444  -0.28434  -0.28055  -0.27867
 Alpha  occ. eigenvalues --   -0.27860  -0.27700  -0.27466  -0.27456  -0.27360
 Alpha  occ. eigenvalues --   -0.27337  -0.27283  -0.27125  -0.26950  -0.26946
 Alpha  occ. eigenvalues --   -0.26786  -0.26661  -0.26477  -0.26325  -0.26317
 Alpha  occ. eigenvalues --   -0.26008  -0.25995  -0.25970  -0.24303  -0.24292
 Alpha  occ. eigenvalues --   -0.24177  -0.24160  -0.23332
 Alpha virt. eigenvalues --   -0.21103  -0.19518  -0.19504  -0.19469  -0.19105
 Alpha virt. eigenvalues --   -0.18978  -0.18974  -0.18916  -0.18914  -0.18884
 Alpha virt. eigenvalues --   -0.18863  -0.18820  -0.18293  -0.18164  -0.18145
 Alpha virt. eigenvalues --   -0.17974  -0.17953  -0.17712  -0.17524  -0.13783
 Alpha virt. eigenvalues --   -0.13463  -0.13256  -0.13247  -0.13107  -0.13099
 Alpha virt. eigenvalues --   -0.11741  -0.11739  -0.11259  -0.11003  -0.10994
 Alpha virt. eigenvalues --   -0.10981  -0.10913  -0.10871  -0.10499  -0.10489
 Alpha virt. eigenvalues --   -0.10405  -0.10391  -0.10330  -0.10311  -0.10187
 Alpha virt. eigenvalues --   -0.10038  -0.10022  -0.09815  -0.09695  -0.09685
 Alpha virt. eigenvalues --   -0.09667  -0.09587  -0.09555  -0.09546  -0.09469
 Alpha virt. eigenvalues --   -0.09287  -0.09241  -0.09231  -0.09211  -0.09187
 Alpha virt. eigenvalues --   -0.08418  -0.08389  -0.08269  -0.08243  -0.08082
 Alpha virt. eigenvalues --   -0.08046  -0.05057  -0.05035  -0.04180  -0.04165
 Alpha virt. eigenvalues --   -0.04051  -0.04035  -0.04028  -0.03411   0.01354
 Alpha virt. eigenvalues --    0.01727   0.01747   0.01750   0.01900   0.02218
 Alpha virt. eigenvalues --    0.02222   0.02297   0.02302   0.02524   0.02533
 Alpha virt. eigenvalues --    0.02740   0.03192   0.04063   0.04064   0.04163
 Alpha virt. eigenvalues --    0.04305   0.04308   0.04505   0.04815   0.04818
 Alpha virt. eigenvalues --    0.05200   0.05205   0.05695   0.05770   0.05819
 Alpha virt. eigenvalues --    0.05822   0.05928   0.05933   0.06007   0.07231
 Alpha virt. eigenvalues --    0.07234   0.07461   0.07490   0.07497   0.07505
 Alpha virt. eigenvalues --    0.08935   0.08942   0.09091   0.09131   0.09135
 Alpha virt. eigenvalues --    0.09158   0.09480   0.09530   0.09998   0.10328
 Alpha virt. eigenvalues --    0.10331   0.10961   0.10963   0.10971   0.11334
 Alpha virt. eigenvalues --    0.11345   0.11952   0.11959   0.11965   0.12000
 Alpha virt. eigenvalues --    0.12155   0.12419   0.12430   0.13030   0.13037
 Alpha virt. eigenvalues --    0.13105   0.13110   0.13612   0.13614   0.13718
 Alpha virt. eigenvalues --    0.14469   0.14729   0.14731   0.15089   0.15094
 Alpha virt. eigenvalues --    0.15230   0.15574   0.15931   0.15938   0.16105
 Alpha virt. eigenvalues --    0.16141   0.16148   0.16757   0.16763   0.16954
 Alpha virt. eigenvalues --    0.17245   0.17606   0.17682   0.17691   0.18125
 Alpha virt. eigenvalues --    0.18259   0.18323   0.18331   0.18798   0.18807
 Alpha virt. eigenvalues --    0.18904   0.19172   0.19180   0.19714   0.19727
 Alpha virt. eigenvalues --    0.19911   0.20775   0.20791   0.21074   0.21092
 Alpha virt. eigenvalues --    0.21272   0.21283   0.21314   0.21946   0.21952
 Alpha virt. eigenvalues --    0.22117   0.22762   0.22967   0.23260   0.23274
 Alpha virt. eigenvalues --    0.24064   0.24072   0.24108   0.24122   0.24166
 Alpha virt. eigenvalues --    0.24625   0.25203   0.25211   0.25873   0.25881
 Alpha virt. eigenvalues --    0.26703   0.26735   0.26757   0.27175   0.28034
 Alpha virt. eigenvalues --    0.28481   0.28635   0.28651   0.28663   0.28702
 Alpha virt. eigenvalues --    0.28706   0.29975   0.30314   0.30340   0.30674
 Alpha virt. eigenvalues --    0.30694   0.32405   0.32416   0.32677   0.32715
 Alpha virt. eigenvalues --    0.32720   0.33055   0.33930   0.34392   0.34400
 Alpha virt. eigenvalues --    0.34944   0.34946   0.35128   0.35142   0.35546
 Alpha virt. eigenvalues --    0.36135   0.36152   0.36460   0.36509   0.40460
 Alpha virt. eigenvalues --    0.40481   0.40908   0.40959   0.41789   0.41854
 Alpha virt. eigenvalues --    0.43243   0.45453   0.48123   0.49789   0.49795
 Alpha virt. eigenvalues --    0.53404   0.54105   0.54322   0.54341   0.54631
 Alpha virt. eigenvalues --    0.54659   0.56154   0.56438   0.56450   0.56504
 Alpha virt. eigenvalues --    0.56535   0.57066   0.58858   0.58872   0.60646
 Alpha virt. eigenvalues --    0.62159   0.62392   0.62401   0.64661   0.65994
 Alpha virt. eigenvalues --    0.66098   0.66133   0.66679   0.66745   0.66935
 Alpha virt. eigenvalues --    0.66962   0.67424   0.67432   0.67830   0.68248
 Alpha virt. eigenvalues --    0.68556   0.68578   0.69011   0.69133   0.69613
 Alpha virt. eigenvalues --    0.69640   0.70414   0.70518   0.70689   0.70724
 Alpha virt. eigenvalues --    0.71750   0.71762   0.72294   0.72311   0.72995
 Alpha virt. eigenvalues --    0.73042   0.73959   0.74004   0.74298   0.74311
 Alpha virt. eigenvalues --    0.75163   0.75177   0.75885   0.75988   0.76019
 Alpha virt. eigenvalues --    0.76623   0.76631   0.77022   0.77471   0.77660
 Alpha virt. eigenvalues --    0.77666   0.77890   0.77979   0.77994   0.78029
 Alpha virt. eigenvalues --    0.78048   0.78614   0.78631   0.79798   0.79817
 Alpha virt. eigenvalues --    0.80518   0.80648   0.80804   0.81066   0.81091
 Alpha virt. eigenvalues --    0.81246   0.81269   0.81530   0.81559   0.82088
 Alpha virt. eigenvalues --    0.82163   0.82266   0.82410   0.82417   0.83766
 Alpha virt. eigenvalues --    0.83778   0.84012   0.84038   0.84122   0.84220
 Alpha virt. eigenvalues --    0.84871   0.84885   0.85328   0.85370   0.87026
 Alpha virt. eigenvalues --    0.87049   0.87177   0.87194   0.87434   0.87514
 Alpha virt. eigenvalues --    0.87953   0.88067   0.88098   0.88377   0.88869
 Alpha virt. eigenvalues --    0.88889   0.88979   0.88997   0.89166   0.90225
 Alpha virt. eigenvalues --    0.90250   0.91184   0.91558   0.91602   0.91653
 Alpha virt. eigenvalues --    0.91709   0.91726   0.92335   0.92359   0.92390
 Alpha virt. eigenvalues --    0.92423   0.92987   0.93556   0.93570   0.93598
 Alpha virt. eigenvalues --    0.93628   0.94000   0.94139   0.94368   0.94544
 Alpha virt. eigenvalues --    0.94583   0.96018   0.96333   0.96370   0.96542
 Alpha virt. eigenvalues --    0.97150   0.97155   0.97718   0.97760   0.98239
 Alpha virt. eigenvalues --    0.98771   0.98810   0.98905   0.99323   0.99345
 Alpha virt. eigenvalues --    0.99633   1.00278   1.00445   1.00466   1.00716
 Alpha virt. eigenvalues --    1.01130   1.01140   1.01646   1.01687   1.01712
 Alpha virt. eigenvalues --    1.02114   1.02126   1.02195   1.02247   1.02265
 Alpha virt. eigenvalues --    1.03555   1.03578   1.03895   1.03937   1.04245
 Alpha virt. eigenvalues --    1.04294   1.04331   1.04359   1.04594   1.04860
 Alpha virt. eigenvalues --    1.04873   1.05517   1.05653   1.05882   1.06250
 Alpha virt. eigenvalues --    1.06294   1.06705   1.06739   1.07101   1.08262
 Alpha virt. eigenvalues --    1.08411   1.08443   1.08920   1.09020   1.09032
 Alpha virt. eigenvalues --    1.09131   1.09160   1.11675   1.11717   1.13127
 Alpha virt. eigenvalues --    1.13170   1.13248   1.14080   1.14431   1.14483
 Alpha virt. eigenvalues --    1.14652   1.14696   1.14771   1.16044   1.16072
 Alpha virt. eigenvalues --    1.16098   1.16916   1.17807   1.17850   1.19732
 Alpha virt. eigenvalues --    1.19780   1.19820   1.20986   1.21876   1.21898
 Alpha virt. eigenvalues --    1.22568   1.22691   1.22791   1.25059   1.25379
 Alpha virt. eigenvalues --    1.25482   1.25671   1.25705   1.27462   1.27524
 Alpha virt. eigenvalues --    1.27573   1.30121   1.30778   1.30832   1.33391
 Alpha virt. eigenvalues --    1.33463   1.33676   1.34190   1.34466   1.34494
 Alpha virt. eigenvalues --    1.35144   1.35160   1.35803   1.39876   1.39947
 Alpha virt. eigenvalues --    1.45128   1.72103   1.74375   1.75375   1.75413
 Alpha virt. eigenvalues --    1.79600   1.79626   1.82095   1.82722   1.82776
 Alpha virt. eigenvalues --    1.83260   1.83301   1.87973   1.87999   1.88037
 Alpha virt. eigenvalues --    1.88250   1.89042   1.89570   1.89602   1.92701
 Alpha virt. eigenvalues --    1.93329   1.93380   1.94382   1.94508   1.97547
 Alpha virt. eigenvalues --    1.97661   1.98426   1.98538   2.02237   2.02277
 Alpha virt. eigenvalues --    2.04761   2.09542   2.09614   2.17604   2.18532
 Alpha virt. eigenvalues --    2.21975   2.22105   2.29267   2.37598   2.68769
 Alpha virt. eigenvalues --    2.69295   2.80865   2.81632   2.96404   2.97175
 Alpha virt. eigenvalues --    3.11878   3.33138   3.33487   3.43929   3.57517
 Alpha virt. eigenvalues --    3.57678   8.65381  10.72730  10.87260  10.88373
 Alpha virt. eigenvalues --   11.00596  11.01247  11.57495  13.97402  14.01215
 Alpha virt. eigenvalues --   14.16357  16.05086  16.08412  44.50808
          Condensed to atoms (all electrons):
 Mulliken charges:
               1
     1  Fe   4.221492
     2  Fe   0.638583
     3  Fe   0.636408
     4  Fe   0.574526
     5  Fe   0.566704
     6  Fe   0.637383
     7  Fe   0.639017
     8  Fe   0.637090
     9  Fe   0.567060
    10  Fe   0.637605
    11  Fe   0.640017
    12  Fe   0.573265
    13  Fe   0.641339
    14  Fe   0.577407
    15  Fe   0.639422
    16  Fe   0.636579
    17  Fe   0.636488
    18  Fe   0.636949
    19  Fe   0.566943
    20  Ni   0.440182
    21  Ni   0.433616
    22  Ni   0.437512
    23  Ni   0.436184
    24  Ni   0.435550
    25  Ni   0.432752
    26  O   -0.313173
    27  O   -0.749900
    28  O   -0.747723
    29  O   -0.753012
    30  O   -0.625404
    31  O   -0.435349
    32  O   -0.434601
    33  O   -0.319853
    34  O   -0.320776
    35  O   -0.435376
    36  O   -0.622515
    37  O   -0.433705
    38  O   -0.318290
    39  O   -0.322118
    40  O   -0.434526
    41  O   -0.435172
    42  O   -0.623218
    43  O   -0.319928
    44  O   -0.319442
    45  O   -0.749670
    46  O   -0.749714
    47  O   -0.747426
    48  O   -0.312458
    49  O   -0.320630
    50  O   -0.318179
    51  O   -0.434816
    52  O   -0.435099
    53  O   -0.621877
    54  O   -0.319373
    55  O   -0.319651
    56  O   -0.435166
    57  O   -0.622787
    58  O   -0.435417
    59  O   -0.318706
    60  O   -0.320136
    61  O   -0.622506
    62  O   -0.436476
    63  O   -0.435907
 Sum of Mulliken charges =   0.00000
 Mulliken charges with hydrogens summed into heavy atoms:
               1
     1  Fe   4.221492
     2  Fe   0.638583
     3  Fe   0.636408
     4  Fe   0.574526
     5  Fe   0.566704
     6  Fe   0.637383
     7  Fe   0.639017
     8  Fe   0.637090
     9  Fe   0.567060
    10  Fe   0.637605
    11  Fe   0.640017
    12  Fe   0.573265
    13  Fe   0.641339
    14  Fe   0.577407
    15  Fe   0.639422
    16  Fe   0.636579
    17  Fe   0.636488
    18  Fe   0.636949
    19  Fe   0.566943
    20  Ni   0.440182
    21  Ni   0.433616
    22  Ni   0.437512
    23  Ni   0.436184
    24  Ni   0.435550
    25  Ni   0.432752
    26  O   -0.313173
    27  O   -0.749900
    28  O   -0.747723
    29  O   -0.753012
    30  O   -0.625404
    31  O   -0.435349
    32  O   -0.434601
    33  O   -0.319853
    34  O   -0.320776
    35  O   -0.435376
    36  O   -0.622515
    37  O   -0.433705
    38  O   -0.318290
    39  O   -0.322118
    40  O   -0.434526
    41  O   -0.435172
    42  O   -0.623218
    43  O   -0.319928
    44  O   -0.319442
    45  O   -0.749670
    46  O   -0.749714
    47  O   -0.747426
    48  O   -0.312458
    49  O   -0.320630
    50  O   -0.318179
    51  O   -0.434816
    52  O   -0.435099
    53  O   -0.621877
    54  O   -0.319373
    55  O   -0.319651
    56  O   -0.435166
    57  O   -0.622787
    58  O   -0.435417
    59  O   -0.318706
    60  O   -0.320136
    61  O   -0.622506
    62  O   -0.436476
    63  O   -0.435907
 Electronic spatial extent (au):  <R**2>=          46859.6327
 Charge=              0.0000 electrons
 Dipole moment (field-independent basis, Debye):
    X=              0.0226    Y=              0.0362    Z=              0.0349  Tot=              0.0551
 Quadrupole moment (field-independent basis, Debye-Ang):
   XX=           -427.4939   YY=           -427.7110   ZZ=           -614.3358
   XY=              0.0310   XZ=             -0.0038   YZ=             -0.2629
 Traceless Quadrupole moment (field-independent basis, Debye-Ang):
   XX=             62.3530   YY=             62.1359   ZZ=           -124.4889
   XY=              0.0310   XZ=             -0.0038   YZ=             -0.2629
 Octapole moment (field-independent basis, Debye-Ang**2):
  XXX=              1.0775  YYY=              1.0530  ZZZ=              0.4644  XYY=             -0.0148
  XXY=              1.2180  XXZ=              0.5098  XZZ=             -0.2235  YZZ=              0.9120
  YYZ=             -0.0862  XYZ=             -0.2571
 Hexadecapole moment (field-independent basis, Debye-Ang**3):
 XXXX=         -18108.5362 YYYY=         -18109.1996 ZZZZ=         -19494.4616 XXXY=              3.7262
 XXXZ=            143.0256 YYYX=             -1.8041 YYYZ=          -1723.3394 ZZZX=             -0.8754
 ZZZY=             -2.3858 XXYY=          -6042.3735 XXZZ=          -5199.0029 YYZZ=          -5202.3313
 XXYZ=           1712.9875 YYXZ=           -139.4372 ZZXY=             -1.1369
 N-N= 2.728681400126D+04 E-N=-6.923107273798D+04  KE= 4.801524661355D+03
 No NMR shielding tensors so no spin-rotation constants.
 Leave Link  601 at Sat Oct 11 07:05:03 2025, MaxMem=  4294967296 cpu:               4.0 elap:               0.6
 (Enter /opt/modules/software/gaussian/G16-C01/l602.exe)
 FitSet:  NAtFit=    63 NAtPot=    63 NAtFrz=     0 MDM=    67 TotChg=   0.00000
 Merz-Kollman atomic radii used.
 GetVDW:  no radius for atom   1 atomic number  26.
 Error termination via Lnk1e in /opt/modules/software/gaussian/G16-C01/l602.exe at Sat Oct 11 07:05:03 2025.
 Job cpu time:      23 days 15 hours  3 minutes 39.8 seconds.
 Elapsed time:       2 days 23 hours  0 minutes 18.6 seconds.
 File lengths (MBytes):  RWF=   1630 Int=      0 D2E=      0 Chk=     16 Scr=      1
