5
nio4-q4-opt.log (E=-468.770516831, step=11)
Ni     1.499729    -0.833832     3.082198
 O     0.022624    -0.079979     3.613839
 O     1.499948    -2.479077     3.642877
 O     1.497156    -0.853814     1.344172
 O     2.975893    -0.080743     3.616735
