 Entering Gaussian System, Link 0=g16
 Input=nio4-q4-opt.com
 Output=nio4-q4-opt.log
 Initial command:
 /opt/modules/software/gaussian/G16-C01/l1.exe "/home/futera/Documents/2025-nife2o4-params/bond-parameters/pbe0-lanl2dz/Gau-3703977.inp" -scrdir="/home/futera/Documents/2025-nife2o4-params/bond-parameters/pbe0-lanl2dz/"
 Entering Link 1 = /opt/modules/software/gaussian/G16-C01/l1.exe PID=   3703978.
  
 Copyright (c) 1988-2019, Gaussian, Inc.  All Rights Reserved.
  
 This is part of the Gaussian(R) 16 program.  It is based on
 the Gaussian(R) 09 system (copyright 2009, Gaussian, Inc.),
 the Gaussian(R) 03 system (copyright 2003, Gaussian, Inc.),
 the Gaussian(R) 98 system (copyright 1998, Gaussian, Inc.),
 the Gaussian(R) 94 system (copyright 1995, Gaussian, Inc.),
 the Gaussian 92(TM) system (copyright 1992, Gaussian, Inc.),
 the Gaussian 90(TM) system (copyright 1990, Gaussian, Inc.),
 the Gaussian 88(TM) system (copyright 1988, Gaussian, Inc.),
 the Gaussian 86(TM) system (copyright 1986, Carnegie Mellon
 University), and the Gaussian 82(TM) system (copyright 1983,
 Carnegie Mellon University). Gaussian is a federally registered
 trademark of Gaussian, Inc.
  
 This software contains proprietary and confidential information,
 including trade secrets, belonging to Gaussian, Inc.
  
 This software is provided under written license and may be
 used, copied, transmitted, or stored only in accord with that
 written license.
  
 The following legend is applicable only to US Government
 contracts under FAR:
  
                    RESTRICTED RIGHTS LEGEND
  
 Use, reproduction and disclosure by the US Government is
 subject to restrictions as set forth in subparagraphs (a)
 and (c) of the Commercial Computer Software - Restricted
 Rights clause in FAR 52.227-19.
  
 Gaussian, Inc.
 340 Quinnipiac St., Bldg. 40, Wallingford CT 06492
  
  
 ---------------------------------------------------------------
 Warning -- This program may not be used in any manner that
 competes with the business of Gaussian, Inc. or will provide
 assistance to any competitor of Gaussian, Inc.  The licensee
 of this program is prohibited from giving any competitor of
 Gaussian, Inc. access to this program.  By using this program,
 the user acknowledges that Gaussian, Inc. is engaged in the
 business of creating and licensing software in the field of
 computational chemistry and represents and warrants to the
 licensee that it is not a competitor of Gaussian, Inc. and that
 it will not use this program in any manner prohibited above.
 ---------------------------------------------------------------
  

 Cite this work as:
 Gaussian 16, Revision C.01,
 M. J. Frisch, G. W. Trucks, H. B. Schlegel, G. E. Scuseria, 
 M. A. Robb, J. R. Cheeseman, G. Scalmani, V. Barone, 
 G. A. Petersson, H. Nakatsuji, X. Li, M. Caricato, A. V. Marenich, 
 J. Bloino, B. G. Janesko, R. Gomperts, B. Mennucci, H. P. Hratchian, 
 J. V. Ortiz, A. F. Izmaylov, J. L. Sonnenberg, D. Williams-Young, 
 F. Ding, F. Lipparini, F. Egidi, J. Goings, B. Peng, A. Petrone, 
 T. Henderson, D. Ranasinghe, V. G. Zakrzewski, J. Gao, N. Rega, 
 G. Zheng, W. Liang, M. Hada, M. Ehara, K. Toyota, R. Fukuda, 
 J. Hasegawa, M. Ishida, T. Nakajima, Y. Honda, O. Kitao, H. Nakai, 
 T. Vreven, K. Throssell, J. A. Montgomery, Jr., J. E. Peralta, 
 F. Ogliaro, M. J. Bearpark, J. J. Heyd, E. N. Brothers, K. N. Kudin, 
 V. N. Staroverov, T. A. Keith, R. Kobayashi, J. Normand, 
 K. Raghavachari, A. P. Rendell, J. C. Burant, S. S. Iyengar, 
 J. Tomasi, M. Cossi, J. M. Millam, M. Klene, C. Adamo, R. Cammi, 
 J. W. Ochterski, R. L. Martin, K. Morokuma, O. Farkas, 
 J. B. Foresman, and D. J. Fox, Gaussian, Inc., Wallingford CT, 2019.
 
 ******************************************
 Gaussian 16:  ES64L-G16RevC.01  3-Jul-2019
                18-Oct-2025 
 ******************************************
 %mem=32GB
 %nproc=8
 Will use up to    8 processors via shared memory.
 %chk=nio4-q4-opt.chk
 ----------------------------------------------------------------------
 #p PBE1PBE/GenECP SCF(Tight,XQC,MaxCycle=500,MaxConventional=20) Opt(M
 axCycle=500)
 ----------------------------------------------------------------------
 1/6=500,18=20,19=15,26=3,38=1/1,3;
 2/9=110,12=2,17=6,18=5,40=1/2;
 3/5=7,11=2,16=1,17=8,25=1,30=1,71=1,74=-13/1,2,3;
 4//1;
 5/5=2,7=500,8=3,13=1,32=2,38=5,85=20/2,8;
 6/7=2,8=2,9=2,10=2,28=1/1;
 7//1,2,3,16;
 1/6=500,18=20,19=15,26=3/3(2);
 2/9=110/2;
 99//99;
 2/9=110/2;
 3/5=7,6=1,11=2,16=1,17=8,25=1,30=1,71=1,74=-13,82=7/1,2,3;
 4/5=5,16=3,69=1/1;
 5/5=2,7=500,8=3,13=1,32=2,38=5,85=20/2,8;
 7//1,2,3,16;
 1/6=500,18=20,19=15,26=3/3(-5);
 2/9=110/2;
 6/7=2,8=2,9=2,10=2,19=2,28=1/1;
 99/9=1/99;
 Leave Link    1 at Sat Oct 18 12:11:31 2025, MaxMem=  4294967296 cpu:               0.2 elap:               0.0
 (Enter /opt/modules/software/gaussian/G16-C01/l101.exe)
 -----------------------------
 Nickel ferrate (PBE0/LANL2DZ)
 -----------------------------
 Symbolic Z-matrix:
 Charge = -4 Multiplicity = 1
 Ni                    1.49907  -0.86549   3.05996 
 O                    -0.10902   0.06294   3.71647 
 O                     1.49907  -2.72235   3.71647 
 O                     1.49907  -0.86549   1.09046 
 O                     3.10716   0.06294   3.71646 
 
 ITRead=  0  0  0  0  0
 MicOpt= -1 -1 -1 -1 -1
 NAtoms=      5 NQM=        5 NQMF=       0 NMMI=      0 NMMIF=      0
                NMic=       0 NMicF=      0.
                    Isotopes and Nuclear Properties:
 (Nuclear quadrupole moments (NQMom) in fm**2, nuclear magnetic moments (NMagM)
  in nuclear magnetons)

  Atom         1           2           3           4           5
 IAtWgt=          58          16          16          16          16
 AtmWgt=  57.9353471  15.9949146  15.9949146  15.9949146  15.9949146
 NucSpn=           0           0           0           0           0
 AtZEff=  -0.0000000  -0.0000000  -0.0000000  -0.0000000  -0.0000000
 NQMom=    0.0000000   0.0000000   0.0000000   0.0000000   0.0000000
 NMagM=    0.0000000   0.0000000   0.0000000   0.0000000   0.0000000
 AtZNuc=  28.0000000   8.0000000   8.0000000   8.0000000   8.0000000
 Leave Link  101 at Sat Oct 18 12:11:31 2025, MaxMem=  4294967296 cpu:               2.6 elap:               0.3
 (Enter /opt/modules/software/gaussian/G16-C01/l103.exe)

 GradGradGradGradGradGradGradGradGradGradGradGradGradGradGradGradGradGrad
 Berny optimization.
 Initialization pass.
                           ----------------------------
                           !    Initial Parameters    !
                           ! (Angstroms and Degrees)  !
 --------------------------                            --------------------------
 ! Name  Definition              Value          Derivative Info.                !
 --------------------------------------------------------------------------------
 ! R1    R(1,2)                  1.9695         estimate D2E/DX2                !
 ! R2    R(1,3)                  1.9695         estimate D2E/DX2                !
 ! R3    R(1,4)                  1.9695         estimate D2E/DX2                !
 ! R4    R(1,5)                  1.9695         estimate D2E/DX2                !
 ! A1    A(2,1,3)              109.4712         estimate D2E/DX2                !
 ! A2    A(2,1,4)              109.4713         estimate D2E/DX2                !
 ! A3    A(2,1,5)              109.4712         estimate D2E/DX2                !
 ! A4    A(3,1,4)              109.4712         estimate D2E/DX2                !
 ! A5    A(3,1,5)              109.4712         estimate D2E/DX2                !
 ! A6    A(4,1,5)              109.4712         estimate D2E/DX2                !
 ! D1    D(2,1,4,3)           -120.0            estimate D2E/DX2                !
 ! D2    D(2,1,5,3)            120.0            estimate D2E/DX2                !
 ! D3    D(2,1,5,4)           -120.0            estimate D2E/DX2                !
 ! D4    D(3,1,5,4)            120.0            estimate D2E/DX2                !
 --------------------------------------------------------------------------------
 Trust Radius=3.00D-01 FncErr=1.00D-07 GrdErr=1.00D-06 EigMax=2.50D+02 EigMin=1.00D-04
 Number of steps in this run=    100 maximum allowed number of steps=    100.
 GradGradGradGradGradGradGradGradGradGradGradGradGradGradGradGradGradGrad

 Leave Link  103 at Sat Oct 18 12:11:32 2025, MaxMem=  4294967296 cpu:               0.0 elap:               0.0
 (Enter /opt/modules/software/gaussian/G16-C01/l202.exe)
                          Input orientation:                          
 ---------------------------------------------------------------------
 Center     Atomic      Atomic             Coordinates (Angstroms)
 Number     Number       Type             X           Y           Z
 ---------------------------------------------------------------------
      1         28           0        1.499070   -0.865489    3.059964
      2          8           0       -0.109020    0.062943    3.716465
      3          8           0        1.499070   -2.722352    3.716465
      4          8           0        1.499070   -0.865490    1.090464
      5          8           0        3.107161    0.062943    3.716464
 ---------------------------------------------------------------------
                    Distance matrix (angstroms):
                    1          2          3          4          5
     1  Ni   0.000000
     2  O    1.969501   0.000000
     3  O    1.969501   3.216181   0.000000
     4  O    1.969500   3.216181   3.216181   0.000000
     5  O    1.969501   3.216181   3.216182   3.216181   0.000000
 Stoichiometry    NiO4(4-)
 Framework group  D2D[O(Ni),2SGD(O2)]
 Deg. of freedom     2
 Full point group                 D2D     NOp   8
 Largest Abelian subgroup         C2V     NOp   4
 Largest concise Abelian subgroup C2V     NOp   4
                         Standard orientation:                         
 ---------------------------------------------------------------------
 Center     Atomic      Atomic             Coordinates (Angstroms)
 Number     Number       Type             X           Y           Z
 ---------------------------------------------------------------------
      1         28           0       -0.000000   -0.000000    0.000000
      2          8           0       -0.000000    1.608091    1.137092
      3          8           0       -1.608091    0.000000   -1.137092
      4          8           0        1.608091   -0.000000   -1.137092
      5          8           0       -0.000000   -1.608091    1.137092
 ---------------------------------------------------------------------
 Rotational constants (GHZ):           3.0545995           3.0545995           3.0545990
 Leave Link  202 at Sat Oct 18 12:11:32 2025, MaxMem=  4294967296 cpu:               0.0 elap:               0.0
 (Enter /opt/modules/software/gaussian/G16-C01/l301.exe)
 General basis read from cards:  (5D, 7F)
 Centers:       2      3      4      5
 S 7 1.00
     Exponent=  7.8170000000D+03 Coefficients=  1.1760000000D-03
     Exponent=  1.1760000000D+03 Coefficients=  8.9680000000D-03
     Exponent=  2.7320000000D+02 Coefficients=  4.2868000000D-02
     Exponent=  8.1170000000D+01 Coefficients=  1.4393000000D-01
     Exponent=  2.7180000000D+01 Coefficients=  3.5563000000D-01
     Exponent=  9.5320000000D+00 Coefficients=  4.6124800000D-01
     Exponent=  3.4140000000D+00 Coefficients=  1.4020600000D-01
 S 2 1.00
     Exponent=  9.5320000000D+00 Coefficients= -1.5415300000D-01
     Exponent=  9.3980000000D-01 Coefficients=  1.0569140000D+00
 S 1 1.00
     Exponent=  2.8460000000D-01 Coefficients=  1.0000000000D+00
 P 4 1.00
     Exponent=  3.5180000000D+01 Coefficients=  1.9580000000D-02
     Exponent=  7.9040000000D+00 Coefficients=  1.2420000000D-01
     Exponent=  2.3050000000D+00 Coefficients=  3.9471400000D-01
     Exponent=  7.1710000000D-01 Coefficients=  6.2737600000D-01
 P 1 1.00
     Exponent=  2.1370000000D-01 Coefficients=  1.0000000000D+00
 ****
 Centers:       1
 S 3 1.00
     Exponent=  7.6200000000D+00 Coefficients= -4.0825500000D-01
     Exponent=  2.2940000000D+00 Coefficients=  7.4553080000D-01
     Exponent=  8.7600000000D-01 Coefficients=  5.3257210000D-01
 S 4 1.00
     Exponent=  7.6200000000D+00 Coefficients=  1.8725910000D-01
     Exponent=  2.2940000000D+00 Coefficients= -3.9669640000D-01
     Exponent=  8.7600000000D-01 Coefficients= -4.9540030000D-01
     Exponent=  1.1530000000D-01 Coefficients=  1.0844343000D+00
 S 1 1.00
     Exponent=  3.9600000000D-02 Coefficients=  1.0000000000D+00
 P 3 1.00
     Exponent=  2.3660000000D+01 Coefficients= -4.8155800000D-02
     Exponent=  2.8930000000D+00 Coefficients=  6.2584730000D-01
     Exponent=  9.4350000000D-01 Coefficients=  4.7151580000D-01
 P 1 1.00
     Exponent=  8.4000000000D-02 Coefficients=  1.0000000000D+00
 P 1 1.00
     Exponent=  2.4000000000D-02 Coefficients=  1.0000000000D+00
 D 4 1.00
     Exponent=  4.2720000000D+01 Coefficients=  3.7269900000D-02
     Exponent=  1.1760000000D+01 Coefficients=  1.9561030000D-01
     Exponent=  3.8170000000D+00 Coefficients=  4.5612730000D-01
     Exponent=  1.1690000000D+00 Coefficients=  5.6215870000D-01
 D 1 1.00
     Exponent=  2.8360000000D-01 Coefficients=  1.0000000000D+00
 ****
 ======================================================================================================
                                       Pseudopotential Parameters
 ======================================================================================================
  Center     Atomic      Valence      Angular      Power
  Number     Number     Electrons     Momentum     of R      Exponent        Coefficient   SO-Coeffient
 ======================================================================================================
    1         28           18
                                      D and up 
                                                     1      469.9324331      -10.00000000    0.00000000
                                                     2       85.4236411      -69.40848050    0.00000000
                                                     2       21.2674984      -12.09510200    0.00000000
                                      S - D
                                                     0      162.1686097        3.00000000    0.00000000
                                                     1      176.5333232       22.02536180    0.00000000
                                                     2       68.9562010      443.01810880    0.00000000
                                                     2       13.5792838      145.56964110    0.00000000
                                      P - D
                                                     0       69.0181506        5.00000000    0.00000000
                                                     1      275.5955596        4.98828240    0.00000000
                                                     2       47.1315453      256.69458530    0.00000000
                                                     2       12.9874075       78.47544500    0.00000000
    2          8
                                   No pseudopotential on this center.
    3          8
                                   No pseudopotential on this center.
    4          8
                                   No pseudopotential on this center.
    5          8
                                   No pseudopotential on this center.
 ======================================================================================================
 Ernie: Thresh=  0.10000D-02 Tol=  0.10000D-05 Strict=F.
 Ernie:  1 primitive shells out of 78 were deleted.
 There are    26 symmetry adapted cartesian basis functions of A1  symmetry.
 There are     6 symmetry adapted cartesian basis functions of A2  symmetry.
 There are    14 symmetry adapted cartesian basis functions of B1  symmetry.
 There are    14 symmetry adapted cartesian basis functions of B2  symmetry.
 There are    24 symmetry adapted basis functions of A1  symmetry.
 There are     6 symmetry adapted basis functions of A2  symmetry.
 There are    14 symmetry adapted basis functions of B1  symmetry.
 There are    14 symmetry adapted basis functions of B2  symmetry.
    58 basis functions,   152 primitive gaussians,    60 cartesian basis functions
    27 alpha electrons       27 beta electrons
       nuclear repulsion energy       217.9448976757 Hartrees.
 IExCor= 1009 DFT=T Ex+Corr=PBE1PBE ExCW=0 ScaHFX=  0.250000
 ScaDFX=  0.750000  0.750000  1.000000  1.000000 ScalE2=  1.000000  1.000000
 IRadAn=      5 IRanWt=     -1 IRanGd=            0 ICorTp=0 IEmpDi=  4
 NAtoms=    5 NActive=    5 NUniq=    2 SFac= 4.00D+00 NAtFMM=   60 NAOKFM=F Big=F
 Integral buffers will be    131072 words long.
 Raffenetti 2 integral format.
 Two-electron integral symmetry is turned on.
 Leave Link  301 at Sat Oct 18 12:11:32 2025, MaxMem=  4294967296 cpu:               0.3 elap:               0.0
 (Enter /opt/modules/software/gaussian/G16-C01/l302.exe)
 NPDir=0 NMtPBC=     1 NCelOv=     1 NCel=       1 NClECP=     1 NCelD=      1
         NCelK=      1 NCelE2=     1 NClLst=     1 CellRange=     0.0.
 One-electron integrals computed using PRISM.
 One-electron integral symmetry used in STVInt
   8 Symmetry operations used in ECPInt.
 ECPInt:  NShTT=     406 NPrTT=    3130 LenC2=     401 LenP2D=    2286.
 LDataN:  DoStor=T MaxTD1= 4 Len=   56
 NBasis=    58 RedAO= T EigKep=  4.92D-02  NBF=    24     6    14    14
 NBsUse=    58 1.00D-06 EigRej= -1.00D+00 NBFU=    24     6    14    14
 Precomputing XC quadrature grid using
 IXCGrd= 4 IRadAn=           5 IRanWt=          -1 IRanGd=           0 AccXCQ= 0.00D+00.
 Generated NRdTot=       0 NPtTot=           0 NUsed=           0 NTot=          32
 NSgBfM=    60    60    60    60    60 MxSgAt=     5 MxSgA2=     5.
 Leave Link  302 at Sat Oct 18 12:11:32 2025, MaxMem=  4294967296 cpu:               0.6 elap:               0.1
 (Enter /opt/modules/software/gaussian/G16-C01/l303.exe)
 DipDrv:  MaxL=1.
 Leave Link  303 at Sat Oct 18 12:11:32 2025, MaxMem=  4294967296 cpu:               0.1 elap:               0.0
 (Enter /opt/modules/software/gaussian/G16-C01/l401.exe)
 ExpMin= 2.40D-02 ExpMax= 7.82D+03 ExpMxC= 2.73D+02 IAcc=3 IRadAn=         5 AccDes= 0.00D+00
 Harris functional with IExCor= 1009 and IRadAn=       5 diagonalized for initial guess.
 HarFok:  IExCor= 1009 AccDes= 0.00D+00 IRadAn=         5 IDoV= 1 UseB2=F ITyADJ=14
 ICtDFT=  3500011 ScaDFX=  1.000000  1.000000  1.000000  1.000000
 FoFCou: FMM=F IPFlag=           0 FMFlag=      100000 FMFlg1=           0
         NFxFlg=           0 DoJE=T BraDBF=F KetDBF=T FulRan=T
         wScrn=  0.000000 ICntrl=       500 IOpCl=  0 I1Cent=   200000004 NGrid=           0
         NMat0=    1 NMatS0=      1 NMatT0=    0 NMatD0=    1 NMtDS0=    0 NMtDT0=    0
 Petite list used in FoFCou.
 Harris En= -471.021537008285    
 JPrj=0 DoOrth=F DoCkMO=F.
 Initial guess orbital symmetries:
       Occupied  (A1) (E) (E) (B2) (A1) (E) (E) (B2) (A1) (E) (E)
                 (B2) (A1) (E) (E) (B2) (B1) (A1) (B2) (E) (E)
                 (A2) (E) (E) (B1) (A1) (E)
       Virtual   (E) (B2) (A1) (B2) (E) (E) (B2) (E) (E) (A1) (B1)
                 (A1) (E) (E) (B2) (A2) (E) (E) (E) (E) (B2) (B1)
                 (A1) (E) (E) (B2) (A1) (E) (E) (B2) (A1)
 Leave Link  401 at Sat Oct 18 12:11:32 2025, MaxMem=  4294967296 cpu:               0.6 elap:               0.1
 (Enter /opt/modules/software/gaussian/G16-C01/l502.exe)
 Keep R1 ints in memory in symmetry-blocked form, NReq=8551356.
 FoFCou: FMM=F IPFlag=           0 FMFlag=           0 FMFlg1=           0
         NFxFlg=           0 DoJE=F BraDBF=F KetDBF=F FulRan=T
         wScrn=  0.000000 ICntrl=       600 IOpCl=  0 I1Cent=           0 NGrid=           0
         NMat0=    1 NMatS0=   1711 NMatT0=    0 NMatD0=    1 NMtDS0=    0 NMtDT0=    0
 Petite list used in FoFCou.
 Closed shell SCF:
 Using DIIS extrapolation, IDIIS=  1040.
 NGot=  4294967296 LenX=  4294577260 LenY=  4294573219
 Requested convergence on RMS density matrix=1.00D-08 within  20 cycles.
 Requested convergence on MAX density matrix=1.00D-06.
 Requested convergence on             energy=1.00D-06.
 No special actions if energy rises.

 Cycle   1  Pass 1  IDiag  1:
 Density matrix breaks symmetry, PCut= 1.00D-04
 Density has only Abelian symmetry.
 E= -466.216559504137    
 DIIS: error= 2.66D-01 at cycle   1 NSaved=   1.
 NSaved= 1 IEnMin= 1 EnMin= -466.216559504137     IErMin= 1 ErrMin= 2.66D-01
 ErrMax= 2.66D-01  0.00D+00 EMaxC= 1.00D-01 BMatC= 2.83D+00 BMatP= 2.83D+00
 IDIUse=3 WtCom= 0.00D+00 WtEn= 1.00D+00
 Coeff-Com:  0.100D+01
 Coeff-En:   0.100D+01
 Coeff:      0.100D+01
 Gap=    -1.186 Goal=   None    Shift=    0.000
 GapD=   -1.186 DampG=0.250 DampE=0.125 DampFc=0.1250 IDamp=-1.
 Damping current iteration by 1.25D-01
 RMSDP=1.03D-01 MaxDP=1.78D+00              OVMax= 9.73D-01

 Cycle   2  Pass 1  IDiag  1:
 Density matrix breaks symmetry, PCut= 1.00D-04
 Density has only Abelian symmetry.
 E= -467.218926894598     Delta-E=       -1.002367390461 Rises=F Damp=T
 DIIS: error= 1.60D-01 at cycle   2 NSaved=   2.
 NSaved= 2 IEnMin= 2 EnMin= -467.218926894598     IErMin= 2 ErrMin= 1.60D-01
 ErrMax= 1.60D-01  0.00D+00 EMaxC= 1.00D-01 BMatC= 9.61D-01 BMatP= 2.83D+00
 IDIUse=3 WtCom= 0.00D+00 WtEn= 1.00D+00
 Coeff-Com: -0.135D+01 0.235D+01
 Coeff-En:   0.000D+00 0.100D+01
 Coeff:      0.000D+00 0.100D+01
 Gap=     0.010 Goal=   None    Shift=    0.000
 RMSDP=6.98D-02 MaxDP=1.55D+00 DE=-1.00D+00 OVMax= 3.87D-01

 Cycle   3  Pass 1  IDiag  1:
 Density matrix breaks symmetry, PCut= 1.00D-04
 Density has only Abelian symmetry.
 E= -460.802126405312     Delta-E=        6.416800489286 Rises=F Damp=F
 DIIS: error= 2.93D-01 at cycle   3 NSaved=   3.
 NSaved= 3 IEnMin= 2 EnMin= -467.218926894598     IErMin= 2 ErrMin= 1.60D-01
 ErrMax= 2.93D-01  0.00D+00 EMaxC= 1.00D-01 BMatC= 5.67D+00 BMatP= 9.61D-01
 IDIUse=2 WtCom= 0.00D+00 WtEn= 1.00D+00
 EnCoef did   100 forward-backward iterations
 Coeff-En:   0.635D+00 0.446D-01 0.320D+00
 Coeff:      0.635D+00 0.446D-01 0.320D+00
 Gap=     0.054 Goal=   None    Shift=    0.000
 RMSDP=4.76D-02 MaxDP=6.95D-01 DE= 6.42D+00 OVMax= 1.47D-01

 Cycle   4  Pass 1  IDiag  1:
 Density matrix breaks symmetry, PCut= 1.00D-04
 Density has only Abelian symmetry.
 E= -461.420266285305     Delta-E=       -0.618139879994 Rises=F Damp=F
 DIIS: error= 2.11D-01 at cycle   4 NSaved=   4.
 NSaved= 4 IEnMin= 2 EnMin= -467.218926894598     IErMin= 2 ErrMin= 1.60D-01
 ErrMax= 2.11D-01  0.00D+00 EMaxC= 1.00D-01 BMatC= 4.68D+00 BMatP= 9.61D-01
 IDIUse=2 WtCom= 0.00D+00 WtEn= 1.00D+00
 EnCoef did   100 forward-backward iterations
 Coeff-En:   0.598D+00 0.265D-01 0.239D+00 0.137D+00
 Coeff:      0.598D+00 0.265D-01 0.239D+00 0.137D+00
 Gap=     0.015 Goal=   None    Shift=    0.000
 RMSDP=4.90D-02 MaxDP=1.02D+00 DE=-6.18D-01 OVMax= 8.95D-01

 Cycle   5  Pass 1  IDiag  1:
 Density matrix breaks symmetry, PCut= 1.00D-04
 Density has only Abelian symmetry.
 E= -465.726035811686     Delta-E=       -4.305769526381 Rises=F Damp=F
 DIIS: error= 1.69D-01 at cycle   5 NSaved=   5.
 NSaved= 5 IEnMin= 2 EnMin= -467.218926894598     IErMin= 2 ErrMin= 1.60D-01
 ErrMax= 1.69D-01  0.00D+00 EMaxC= 1.00D-01 BMatC= 2.29D+00 BMatP= 9.61D-01
 IDIUse=2 WtCom= 0.00D+00 WtEn= 1.00D+00
 EnCoef did   100 forward-backward iterations
 Coeff-En:   0.433D+00 0.264D-01 0.000D+00 0.191D+00 0.349D+00
 Coeff:      0.433D+00 0.264D-01 0.000D+00 0.191D+00 0.349D+00
 Gap=     0.015 Goal=   None    Shift=    0.000
 RMSDP=6.94D-02 MaxDP=1.53D+00 DE=-4.31D+00 OVMax= 6.64D-01

 Cycle   6  Pass 1  IDiag  1:
 Density matrix breaks symmetry, PCut= 1.00D-04
 Density has only Abelian symmetry.
 E= -463.441112277260     Delta-E=        2.284923534426 Rises=F Damp=F
 DIIS: error= 4.89D-01 at cycle   6 NSaved=   6.
 NSaved= 6 IEnMin= 2 EnMin= -467.218926894598     IErMin= 2 ErrMin= 1.60D-01
 ErrMax= 4.89D-01  0.00D+00 EMaxC= 1.00D-01 BMatC= 7.18D+00 BMatP= 9.61D-01
 IDIUse=2 WtCom= 0.00D+00 WtEn= 1.00D+00
 EnCoef did   100 forward-backward iterations
 Coeff-En:   0.324D+00 0.104D-01 0.000D+00 0.168D+00 0.376D+00 0.121D+00
 Coeff:      0.324D+00 0.104D-01 0.000D+00 0.168D+00 0.376D+00 0.121D+00
 Gap=     0.018 Goal=   None    Shift=    0.000
 RMSDP=6.70D-02 MaxDP=1.71D+00 DE= 2.28D+00 OVMax= 4.33D-01

 Cycle   7  Pass 1  IDiag  1:
 Density matrix breaks symmetry, PCut= 1.00D-04
 Density has only Abelian symmetry.
 E= -468.545317742833     Delta-E=       -5.104205465573 Rises=F Damp=F
 DIIS: error= 4.37D-02 at cycle   7 NSaved=   7.
 NSaved= 7 IEnMin= 7 EnMin= -468.545317742833     IErMin= 7 ErrMin= 4.37D-02
 ErrMax= 4.37D-02  0.00D+00 EMaxC= 1.00D-01 BMatC= 1.43D-01 BMatP= 9.61D-01
 IDIUse=3 WtCom= 5.63D-01 WtEn= 4.37D-01
 EnCoef did     4 forward-backward iterations
 Coeff-Com: -0.100D+01 0.168D+01-0.512D-01-0.135D-01 0.112D+00-0.713D-03
 Coeff-Com:  0.274D+00
 Coeff-En:   0.000D+00 0.000D+00 0.000D+00 0.000D+00 0.141D+00 0.319D-01
 Coeff-En:   0.827D+00
 Coeff:     -0.565D+00 0.947D+00-0.288D-01-0.758D-02 0.125D+00 0.136D-01
 Coeff:      0.516D+00
 Gap=     0.006 Goal=   None    Shift=    0.000
 RMSDP=5.40D-02 MaxDP=1.40D+00 DE=-5.10D+00 OVMax= 1.90D-01

 Cycle   8  Pass 1  IDiag  1:
 Density matrix breaks symmetry, PCut= 1.00D-04
 Density has only Abelian symmetry.
 E= -465.615690682173     Delta-E=        2.929627060660 Rises=F Damp=F
 DIIS: error= 2.04D-01 at cycle   8 NSaved=   8.
 NSaved= 8 IEnMin= 7 EnMin= -468.545317742833     IErMin= 7 ErrMin= 4.37D-02
 ErrMax= 2.04D-01  0.00D+00 EMaxC= 1.00D-01 BMatC= 2.40D+00 BMatP= 1.43D-01
 IDIUse=2 WtCom= 0.00D+00 WtEn= 1.00D+00
 Coeff-En:   0.000D+00 0.000D+00 0.000D+00 0.000D+00 0.000D+00 0.000D+00
 Coeff-En:   0.848D+00 0.152D+00
 Coeff:      0.000D+00 0.000D+00 0.000D+00 0.000D+00 0.000D+00 0.000D+00
 Coeff:      0.848D+00 0.152D+00
 Gap=     0.008 Goal=   None    Shift=    0.000
 RMSDP=5.01D-02 MaxDP=1.38D+00 DE= 2.93D+00 OVMax= 1.58D-01

 Cycle   9  Pass 1  IDiag  1:
 Density matrix breaks symmetry, PCut= 1.00D-04
 Density has only Abelian symmetry.
 E= -468.416000606869     Delta-E=       -2.800309924695 Rises=F Damp=F
 DIIS: error= 5.97D-02 at cycle   9 NSaved=   9.
 NSaved= 9 IEnMin= 7 EnMin= -468.545317742833     IErMin= 7 ErrMin= 4.37D-02
 ErrMax= 5.97D-02  0.00D+00 EMaxC= 1.00D-01 BMatC= 3.26D-01 BMatP= 1.43D-01
 IDIUse=2 WtCom= 0.00D+00 WtEn= 1.00D+00
 EnCoef did   100 forward-backward iterations
 Coeff-En:   0.000D+00 0.000D+00 0.000D+00 0.000D+00 0.408D-02 0.000D+00
 Coeff-En:   0.683D+00 0.793D-01 0.234D+00
 Coeff:      0.000D+00 0.000D+00 0.000D+00 0.000D+00 0.408D-02 0.000D+00
 Coeff:      0.683D+00 0.793D-01 0.234D+00
 Gap=     0.016 Goal=   None    Shift=    0.000
 RMSDP=1.05D-02 MaxDP=2.34D-01 DE=-2.80D+00 OVMax= 2.97D-01

 Cycle  10  Pass 1  IDiag  1:
 Density matrix breaks symmetry, PCut= 1.00D-04
 Density has only Abelian symmetry.
 E= -468.433472385443     Delta-E=       -0.017471778574 Rises=F Damp=F
 DIIS: error= 9.00D-02 at cycle  10 NSaved=  10.
 NSaved=10 IEnMin= 7 EnMin= -468.545317742833     IErMin= 7 ErrMin= 4.37D-02
 ErrMax= 9.00D-02  0.00D+00 EMaxC= 1.00D-01 BMatC= 3.80D-01 BMatP= 1.43D-01
 IDIUse=2 WtCom= 0.00D+00 WtEn= 1.00D+00
 EnCoef did     2 forward-backward iterations
 Coeff-En:   0.000D+00 0.000D+00 0.000D+00 0.000D+00 0.000D+00 0.000D+00
 Coeff-En:   0.450D+00 0.000D+00 0.280D+00 0.269D+00
 Coeff:      0.000D+00 0.000D+00 0.000D+00 0.000D+00 0.000D+00 0.000D+00
 Coeff:      0.450D+00 0.000D+00 0.280D+00 0.269D+00
 Gap=     0.033 Goal=   None    Shift=    0.000
 RMSDP=1.21D-02 MaxDP=3.32D-01 DE=-1.75D-02 OVMax= 2.14D-01

 Cycle  11  Pass 1  IDiag  1:
 Density matrix breaks symmetry, PCut= 1.00D-04
 Density has only Abelian symmetry.
 E= -468.669548719722     Delta-E=       -0.236076334279 Rises=F Damp=F
 DIIS: error= 2.90D-02 at cycle  11 NSaved=  11.
 NSaved=11 IEnMin=11 EnMin= -468.669548719722     IErMin=11 ErrMin= 2.90D-02
 ErrMax= 2.90D-02  0.00D+00 EMaxC= 1.00D-01 BMatC= 5.14D-02 BMatP= 1.43D-01
 IDIUse=3 WtCom= 7.10D-01 WtEn= 2.90D-01
 EnCoef did    10 forward-backward iterations
 Coeff-Com:  0.575D-02-0.137D-01-0.507D-02-0.510D-02 0.566D-02-0.606D-03
 Coeff-Com:  0.336D+00-0.766D-02 0.188D+00 0.259D+00 0.239D+00
 Coeff-En:   0.000D+00 0.000D+00 0.000D+00 0.000D+00 0.000D+00 0.000D+00
 Coeff-En:   0.118D+00 0.000D+00 0.601D-01 0.224D+00 0.598D+00
 Coeff:      0.408D-02-0.972D-02-0.360D-02-0.362D-02 0.402D-02-0.430D-03
 Coeff:      0.273D+00-0.544D-02 0.151D+00 0.249D+00 0.343D+00
 Gap=     0.058 Goal=   None    Shift=    0.000
 RMSDP=9.21D-03 MaxDP=3.13D-01 DE=-2.36D-01 OVMax= 1.11D-01

 Cycle  12  Pass 1  IDiag  1:
 Density matrix breaks symmetry, PCut= 1.00D-04
 Density has only Abelian symmetry.
 E= -468.717763148654     Delta-E=       -0.048214428932 Rises=F Damp=F
 DIIS: error= 6.87D-03 at cycle  12 NSaved=  12.
 NSaved=12 IEnMin=12 EnMin= -468.717763148654     IErMin=12 ErrMin= 6.87D-03
 ErrMax= 6.87D-03  0.00D+00 EMaxC= 1.00D-01 BMatC= 3.29D-03 BMatP= 5.14D-02
 IDIUse=3 WtCom= 9.31D-01 WtEn= 6.87D-02
 Coeff-Com: -0.532D-01 0.898D-01-0.197D-02-0.218D-03-0.668D-03-0.757D-03
 Coeff-Com: -0.489D-02 0.705D-03-0.518D-01 0.114D-01 0.189D+00 0.823D+00
 Coeff-En:   0.000D+00 0.000D+00 0.000D+00 0.000D+00 0.000D+00 0.000D+00
 Coeff-En:   0.000D+00 0.000D+00 0.000D+00 0.000D+00 0.108D+00 0.892D+00
 Coeff:     -0.496D-01 0.837D-01-0.183D-02-0.203D-03-0.622D-03-0.705D-03
 Coeff:     -0.455D-02 0.657D-03-0.482D-01 0.106D-01 0.183D+00 0.828D+00
 Gap=     0.043 Goal=   None    Shift=    0.000
 RMSDP=1.88D-03 MaxDP=5.42D-02 DE=-4.82D-02 OVMax= 2.92D-02

 Cycle  13  Pass 1  IDiag  1:
 Density matrix breaks symmetry, PCut= 1.00D-04
 Density has only Abelian symmetry.
 E= -468.716185113192     Delta-E=        0.001578035462 Rises=F Damp=F
 DIIS: error= 1.39D-02 at cycle  13 NSaved=  13.
 NSaved=13 IEnMin=12 EnMin= -468.717763148654     IErMin=12 ErrMin= 6.87D-03
 ErrMax= 1.39D-02  0.00D+00 EMaxC= 1.00D-01 BMatC= 7.86D-03 BMatP= 3.29D-03
 IDIUse=2 WtCom= 0.00D+00 WtEn= 1.00D+00
 EnCoef did     3 forward-backward iterations
 Coeff-En:   0.000D+00 0.000D+00 0.000D+00 0.000D+00 0.000D+00 0.000D+00
 Coeff-En:   0.000D+00 0.000D+00 0.000D+00 0.000D+00 0.107D+00 0.519D+00
 Coeff-En:   0.374D+00
 Coeff:      0.000D+00 0.000D+00 0.000D+00 0.000D+00 0.000D+00 0.000D+00
 Coeff:      0.000D+00 0.000D+00 0.000D+00 0.000D+00 0.107D+00 0.519D+00
 Coeff:      0.374D+00
 Gap=     0.041 Goal=   None    Shift=    0.000
 RMSDP=4.15D-03 MaxDP=1.26D-01 DE= 1.58D-03 OVMax= 7.34D-02

 Cycle  14  Pass 1  IDiag  1:
 Density matrix breaks symmetry, PCut= 1.00D-04
 Density has only Abelian symmetry.
 E= -468.692491166052     Delta-E=        0.023693947140 Rises=F Damp=F
 DIIS: error= 3.04D-02 at cycle  14 NSaved=  14.
 NSaved=14 IEnMin=12 EnMin= -468.717763148654     IErMin=12 ErrMin= 6.87D-03
 ErrMax= 3.04D-02  0.00D+00 EMaxC= 1.00D-01 BMatC= 3.75D-02 BMatP= 3.29D-03
 IDIUse=2 WtCom= 0.00D+00 WtEn= 1.00D+00
 EnCoef did     2 forward-backward iterations
 Coeff-En:   0.000D+00 0.000D+00 0.000D+00 0.000D+00 0.000D+00 0.000D+00
 Coeff-En:   0.000D+00 0.000D+00 0.000D+00 0.000D+00 0.000D+00 0.338D+00
 Coeff-En:   0.459D+00 0.203D+00
 Coeff:      0.000D+00 0.000D+00 0.000D+00 0.000D+00 0.000D+00 0.000D+00
 Coeff:      0.000D+00 0.000D+00 0.000D+00 0.000D+00 0.000D+00 0.338D+00
 Coeff:      0.459D+00 0.203D+00
 Gap=     0.043 Goal=   None    Shift=    0.000
 RMSDP=2.15D-03 MaxDP=3.47D-02 DE= 2.37D-02 OVMax= 3.36D-02

 Cycle  15  Pass 1  IDiag  1:
 Density matrix breaks symmetry, PCut= 1.00D-04
 Density has only Abelian symmetry.
 E= -468.715794480045     Delta-E=       -0.023303313993 Rises=F Damp=F
 DIIS: error= 1.17D-02 at cycle  15 NSaved=  15.
 NSaved=15 IEnMin=12 EnMin= -468.717763148654     IErMin=12 ErrMin= 6.87D-03
 ErrMax= 1.17D-02  0.00D+00 EMaxC= 1.00D-01 BMatC= 7.51D-03 BMatP= 3.29D-03
 IDIUse=2 WtCom= 0.00D+00 WtEn= 1.00D+00
 EnCoef did     5 forward-backward iterations
 Coeff-En:   0.000D+00 0.000D+00 0.000D+00 0.000D+00 0.000D+00 0.000D+00
 Coeff-En:   0.000D+00 0.000D+00 0.000D+00 0.000D+00 0.000D+00 0.000D+00
 Coeff-En:   0.517D+00 0.187D-01 0.464D+00
 Coeff:      0.000D+00 0.000D+00 0.000D+00 0.000D+00 0.000D+00 0.000D+00
 Coeff:      0.000D+00 0.000D+00 0.000D+00 0.000D+00 0.000D+00 0.000D+00
 Coeff:      0.517D+00 0.187D-01 0.464D+00
 Gap=     0.043 Goal=   None    Shift=    0.000
 RMSDP=2.61D-03 MaxDP=7.02D-02 DE=-2.33D-02 OVMax= 4.16D-02

 Cycle  16  Pass 1  IDiag  1:
 Density matrix breaks symmetry, PCut= 1.00D-04
 Density has only Abelian symmetry.
 E= -468.716794700644     Delta-E=       -0.001000220599 Rises=F Damp=F
 DIIS: error= 1.08D-02 at cycle  16 NSaved=  16.
 NSaved=16 IEnMin=12 EnMin= -468.717763148654     IErMin=12 ErrMin= 6.87D-03
 ErrMax= 1.08D-02  0.00D+00 EMaxC= 1.00D-01 BMatC= 5.69D-03 BMatP= 3.29D-03
 IDIUse=2 WtCom= 0.00D+00 WtEn= 1.00D+00
 EnCoef did   100 forward-backward iterations
 Coeff-En:   0.000D+00 0.000D+00 0.000D+00 0.000D+00 0.000D+00 0.000D+00
 Coeff-En:   0.000D+00 0.000D+00 0.000D+00 0.000D+00 0.000D+00 0.500D-02
 Coeff-En:   0.435D+00 0.000D+00 0.360D+00 0.200D+00
 Coeff:      0.000D+00 0.000D+00 0.000D+00 0.000D+00 0.000D+00 0.000D+00
 Coeff:      0.000D+00 0.000D+00 0.000D+00 0.000D+00 0.000D+00 0.500D-02
 Coeff:      0.435D+00 0.000D+00 0.360D+00 0.200D+00
 Gap=     0.044 Goal=   None    Shift=    0.000
 RMSDP=1.16D-03 MaxDP=1.36D-02 DE=-1.00D-03 OVMax= 1.98D-02

 Cycle  17  Pass 1  IDiag  1:
 Density matrix breaks symmetry, PCut= 1.00D-04
 Density has only Abelian symmetry.
 E= -468.721641959438     Delta-E=       -0.004847258794 Rises=F Damp=F
 DIIS: error= 1.73D-03 at cycle  17 NSaved=  17.
 NSaved=17 IEnMin=17 EnMin= -468.721641959438     IErMin=17 ErrMin= 1.73D-03
 ErrMax= 1.73D-03  0.00D+00 EMaxC= 1.00D-01 BMatC= 2.36D-04 BMatP= 3.29D-03
 IDIUse=3 WtCom= 9.83D-01 WtEn= 1.73D-02
 Coeff-Com:  0.453D-02-0.713D-02 0.479D-04 0.151D-03-0.452D-03-0.171D-04
 Coeff-Com: -0.666D-02 0.216D-03-0.306D-03-0.146D-02 0.220D-02-0.202D+00
 Coeff-Com:  0.179D+00 0.327D-01 0.568D-02 0.228D-01 0.971D+00
 Coeff-En:   0.000D+00 0.000D+00 0.000D+00 0.000D+00 0.000D+00 0.000D+00
 Coeff-En:   0.000D+00 0.000D+00 0.000D+00 0.000D+00 0.000D+00 0.000D+00
 Coeff-En:   0.177D-01 0.000D+00 0.000D+00 0.000D+00 0.982D+00
 Coeff:      0.446D-02-0.700D-02 0.470D-04 0.148D-03-0.444D-03-0.169D-04
 Coeff:     -0.655D-02 0.213D-03-0.300D-03-0.143D-02 0.216D-02-0.199D+00
 Coeff:      0.176D+00 0.322D-01 0.558D-02 0.224D-01 0.971D+00
 Gap=     0.043 Goal=   None    Shift=    0.000
 RMSDP=7.24D-04 MaxDP=2.52D-02 DE=-4.85D-03 OVMax= 5.89D-03

 Cycle  18  Pass 1  IDiag  1:
 Density matrix breaks symmetry, PCut= 1.00D-04
 Density has only Abelian symmetry.
 E= -468.721897052084     Delta-E=       -0.000255092646 Rises=F Damp=F
 DIIS: error= 7.09D-04 at cycle  18 NSaved=  18.
 NSaved=18 IEnMin=18 EnMin= -468.721897052084     IErMin=18 ErrMin= 7.09D-04
 ErrMax= 7.09D-04  0.00D+00 EMaxC= 1.00D-01 BMatC= 1.90D-05 BMatP= 2.36D-04
 IDIUse=3 WtCom= 9.93D-01 WtEn= 7.09D-03
 Coeff-Com:  0.189D-03-0.404D-03 0.380D-04 0.518D-04-0.167D-03 0.258D-04
 Coeff-Com: -0.107D-03 0.856D-04 0.106D-02-0.959D-03-0.783D-02-0.166D-02
 Coeff-Com:  0.256D-01 0.381D-01-0.600D-01-0.821D-01 0.122D+00 0.966D+00
 Coeff-En:   0.000D+00 0.000D+00 0.000D+00 0.000D+00 0.000D+00 0.000D+00
 Coeff-En:   0.000D+00 0.000D+00 0.000D+00 0.000D+00 0.000D+00 0.000D+00
 Coeff-En:   0.000D+00 0.000D+00 0.000D+00 0.000D+00 0.000D+00 0.100D+01
 Coeff:      0.188D-03-0.401D-03 0.377D-04 0.514D-04-0.166D-03 0.256D-04
 Coeff:     -0.107D-03 0.850D-04 0.105D-02-0.952D-03-0.777D-02-0.165D-02
 Coeff:      0.254D-01 0.378D-01-0.596D-01-0.815D-01 0.121D+00 0.967D+00
 Gap=     0.043 Goal=   None    Shift=    0.000
 RMSDP=2.07D-04 MaxDP=3.74D-03 DE=-2.55D-04 OVMax= 6.93D-03

 Cycle  19  Pass 1  IDiag  1:
 Density matrix breaks symmetry, PCut= 1.00D-04
 Density has only Abelian symmetry.
 E= -468.721922978762     Delta-E=       -0.000025926678 Rises=F Damp=F
 DIIS: error= 9.49D-05 at cycle  19 NSaved=  19.
 NSaved=19 IEnMin=19 EnMin= -468.721922978762     IErMin=19 ErrMin= 9.49D-05
 ErrMax= 9.49D-05  0.00D+00 EMaxC= 1.00D-01 BMatC= 5.77D-07 BMatP= 1.90D-05
 IDIUse=1 WtCom= 1.00D+00 WtEn= 0.00D+00
 Coeff-Com:  0.431D-03-0.775D-03-0.143D-04 0.194D-04-0.885D-06 0.119D-04
 Coeff-Com: -0.211D-02 0.120D-04 0.936D-04-0.226D-02-0.107D-01 0.296D-01
 Coeff-Com:  0.229D-01 0.189D-01 0.872D-01 0.441D-01-0.346D+00-0.155D+01
 Coeff-Com:  0.271D+01
 Coeff:      0.431D-03-0.775D-03-0.143D-04 0.194D-04-0.885D-06 0.119D-04
 Coeff:     -0.211D-02 0.120D-04 0.936D-04-0.226D-02-0.107D-01 0.296D-01
 Coeff:      0.229D-01 0.189D-01 0.872D-01 0.441D-01-0.346D+00-0.155D+01
 Coeff:      0.271D+01
 Gap=     0.043 Goal=   None    Shift=    0.000
 RMSDP=4.68D-04 MaxDP=9.01D-03 DE=-2.59D-05 OVMax= 1.43D-02

 Cycle  20  Pass 1  IDiag  1:
 Density matrix breaks symmetry, PCut= 1.00D-04
 Density has only Abelian symmetry.
 E= -468.721942114801     Delta-E=       -0.000019136039 Rises=F Damp=F
 DIIS: error= 1.81D-04 at cycle  20 NSaved=  20.
 NSaved=20 IEnMin=20 EnMin= -468.721942114801     IErMin=19 ErrMin= 9.49D-05
 ErrMax= 1.81D-04  0.00D+00 EMaxC= 1.00D-01 BMatC= 1.17D-06 BMatP= 5.77D-07
 IDIUse=1 WtCom= 1.00D+00 WtEn= 0.00D+00
 Coeff-Com:  0.296D-03-0.485D-03-0.719D-05 0.225D-05-0.190D-04 0.410D-05
 Coeff-Com: -0.206D-03 0.488D-04-0.810D-03-0.602D-03 0.161D-03-0.686D-03
 Coeff-Com:  0.176D-01-0.247D-02 0.325D-01 0.130D-01 0.332D-01-0.762D+00
 Coeff-Com: -0.244D+00 0.191D+01
 Coeff:      0.296D-03-0.485D-03-0.719D-05 0.225D-05-0.190D-04 0.410D-05
 Coeff:     -0.206D-03 0.488D-04-0.810D-03-0.602D-03 0.161D-03-0.686D-03
 Coeff:      0.176D-01-0.247D-02 0.325D-01 0.130D-01 0.332D-01-0.762D+00
 Coeff:     -0.244D+00 0.191D+01
 Gap=     0.043 Goal=   None    Shift=    0.000
 RMSDP=5.00D-04 MaxDP=7.82D-03 DE=-1.91D-05 OVMax= 1.67D-02

 >>>>>>>>>> Convergence criterion not met.
 SCF Done:  E(RPBE1PBE) =  -468.721942115     A.U. after   21 cycles
            NFock= 20  Conv=0.50D-03     -V/T= 2.1616
 KE= 4.034984566382D+02 PE=-1.591829183066D+03 EE= 5.016638866371D+02
 Leave Link  502 at Sat Oct 18 12:11:32 2025, MaxMem=  4294967296 cpu:               3.4 elap:               0.4
 (Enter /opt/modules/software/gaussian/G16-C01/l508.exe)
 Keep R1 ints in memory in symmetry-blocked form, NReq=8551756.
 FoFCou: FMM=F IPFlag=           0 FMFlag=           0 FMFlg1=           0
         NFxFlg=           0 DoJE=F BraDBF=F KetDBF=F FulRan=T
         wScrn=  0.000000 ICntrl=       600 IOpCl=  0 I1Cent=           0 NGrid=           0
         NMat0=    1 NMatS0=   1711 NMatT0=    0 NMatD0=    1 NMtDS0=    0 NMtDT0=    0
 Petite list used in FoFCou.
 Tight linear equation convergence will be used.
 RPBE1PBE wavefunction.
 Quadratic Convergence SCF Method.
 Line search only if initial step raises energy.
 Density matrix breaks symmetry, PCut= 1.00D-04
 Density has only Abelian symmetry.
 Iteration   1 EE= -468.721952859050                                    Grad=5.468D-04 Max rot=    0.0064 deg.
 QCNR:  CnvC1=4.09D-09 CnvC2=4.09D-08
 LinEq1:  Iter=  0 NonCon=     1 RMS=6.67D-05 Max=7.00D-04 NDo=     1
 AX will form     1 AO Fock derivatives at one time.
 LinEq1:  Iter=  1 NonCon=     1 RMS=1.95D-04 Max=3.10D-03 NDo=     1
 LinEq1:  Iter=  2 NonCon=     1 RMS=5.93D-04 Max=8.75D-03 NDo=     1
 LinEq1:  Iter=  3 NonCon=     1 RMS=1.00D-03 Max=2.47D-02 NDo=     1
 LinEq1:  Iter=  4 NonCon=     1 RMS=1.06D-03 Max=2.40D-02 NDo=     1
 LinEq1:  Iter=  5 NonCon=     1 RMS=1.23D-04 Max=8.94D-04 NDo=     1
 LinEq1:  Iter=  6 NonCon=     1 RMS=4.66D-05 Max=8.46D-04 NDo=     1
 LinEq1:  Iter=  7 NonCon=     1 RMS=9.56D-06 Max=1.35D-04 NDo=     1
 LinEq1:  Iter=  8 NonCon=     1 RMS=2.63D-06 Max=2.95D-05 NDo=     1
 LinEq1:  Iter=  9 NonCon=     1 RMS=7.09D-07 Max=8.23D-06 NDo=     1
 LinEq1:  Iter= 10 NonCon=     1 RMS=1.88D-07 Max=2.32D-06 NDo=     1
 LinEq1:  Iter= 11 NonCon=     1 RMS=3.27D-08 Max=2.57D-07 NDo=     1
 LinEq1:  Iter= 12 NonCon=     1 RMS=4.21D-08 Max=5.18D-07 NDo=     1
 LinEq1:  Iter= 13 NonCon=     1 RMS=4.41D-08 Max=4.87D-07 NDo=     1
 LinEq1:  Iter= 14 NonCon=     1 RMS=5.84D-08 Max=9.18D-07 NDo=     1
 LinEq1:  Iter= 15 NonCon=     1 RMS=5.23D-08 Max=6.57D-07 NDo=     1
 LinEq1:  Iter= 16 NonCon=     1 RMS=1.08D-08 Max=1.44D-07 NDo=     1
 LinEq1:  Iter= 17 NonCon=     0 RMS=1.85D-09 Max=2.06D-08 NDo=     1
 Linear equations converged to 4.091D-09 4.091D-08 after    17 iterations.
 Angle between quadratic step and gradient=  78.85 degrees.
     ILin= 1 X=0.000D+00 Y=-4.687219528590D+02 DE= 0.00D+00 F= -1.26D-06
     ILin= 2 X=1.000D+00 Y=-4.687219534867D+02 DE=-6.28D-07 F= -1.08D-10 OKLS=T
     Reject lnstep IMin12=  1  2 Big=T Turn=F Min= 1.000D+00 FVal=-4.687219534867D+02 Lims=  0.00D+00  1.00D+00
     ILin= 3 X=2.000D+00 Y=-4.687219528593D+02 DE=-2.07D-10 F=  1.26D-06
     An  expanding polynomial of degree  3 produced  1.0001
     Minimum is close to point  2 DX=  8.25D-05 DF=  0.00D+00 DXR=  8.25D-05 DFR=  0.00D+00 which will be used.
 Density matrix breaks symmetry, PCut= 1.00D-04
 Density has only Abelian symmetry.
 Iteration   2 EE= -468.721953486716     Delta-E=       -0.000000627666 Grad=5.626D-06 Max rot=    0.0001 deg.
 QCNR:  CnvC1=5.63D-11 CnvC2=5.63D-10
 LinEq1:  Iter=  0 NonCon=     1 RMS=5.22D-07 Max=6.92D-06 NDo=     1
 LinEq1:  Iter=  1 NonCon=     1 RMS=2.08D-06 Max=3.45D-05 NDo=     1
 LinEq1:  Iter=  2 NonCon=     1 RMS=3.12D-06 Max=5.14D-05 NDo=     1
 LinEq1:  Iter=  3 NonCon=     1 RMS=3.21D-06 Max=3.65D-05 NDo=     1
 LinEq1:  Iter=  4 NonCon=     1 RMS=4.61D-06 Max=7.81D-05 NDo=     1
 LinEq1:  Iter=  5 NonCon=     1 RMS=1.62D-06 Max=2.04D-05 NDo=     1
 LinEq1:  Iter=  6 NonCon=     1 RMS=5.92D-07 Max=7.33D-06 NDo=     1
 LinEq1:  Iter=  7 NonCon=     1 RMS=1.76D-07 Max=3.30D-06 NDo=     1
 LinEq1:  Iter=  8 NonCon=     1 RMS=4.74D-08 Max=4.93D-07 NDo=     1
 LinEq1:  Iter=  9 NonCon=     1 RMS=1.14D-08 Max=1.12D-07 NDo=     1
 LinEq1:  Iter= 10 NonCon=     1 RMS=3.80D-08 Max=4.07D-07 NDo=     1
 LinEq1:  Iter= 11 NonCon=     1 RMS=1.14D-08 Max=1.15D-07 NDo=     1
 LinEq1:  Iter= 12 NonCon=     1 RMS=1.04D-08 Max=1.65D-07 NDo=     1
 LinEq1:  Iter= 13 NonCon=     1 RMS=1.27D-08 Max=1.36D-07 NDo=     1
 LinEq1:  Iter= 14 NonCon=     1 RMS=2.94D-09 Max=2.69D-08 NDo=     1
 LinEq1:  Iter= 15 NonCon=     1 RMS=7.95D-10 Max=9.02D-09 NDo=     1
 LinEq1:  Iter= 16 NonCon=     1 RMS=2.13D-10 Max=2.27D-09 NDo=     1
 LinEq1:  Iter= 17 NonCon=     0 RMS=4.19D-11 Max=4.21D-10 NDo=     1
 Linear equations converged to 5.626D-11 5.626D-10 after    17 iterations.
 Angle between quadratic step and gradient=  76.29 degrees.
     ILin= 1 X=0.000D+00 Y=-4.687219534867D+02 DE= 0.00D+00 F= -4.80D-11
     ILin= 2 X=1.000D+00 Y=-4.687219534867D+02 DE=-2.46D-11
 Density matrix breaks symmetry, PCut= 1.00D-04
 Density has only Abelian symmetry.
 Iteration   3 EE= -468.721953486741     Delta-E=       -0.000000000025 Grad=6.736D-11 Max rot=    0.0000 deg.
 Rotation gradient small -- convergence achieved.
 Orbital symmetries in SymMO:
    1=1    2=3    3=4    4=1    5=1    6=3    7=4    8=1    9=1   10=3
   11=1   12=4   13=2   14=1   15=4   16=3   17=1   18=1   19=3   20=1
   21=4   22=2   23=3   24=1   25=2   26=4   27=4   28=3   29=1   30=4
   31=1   32=3   33=1   34=3   35=1   36=4   37=1   38=1   39=2   40=3
   41=1   42=4   43=3   44=2   45=4   46=4   47=1   48=3   49=2   50=1
   51=4   52=3   53=1   54=1   55=3   56=1   57=4   58=1
 SCF Done:  E(RPBE1PBE) =  -468.721953487     a.u. after    3 cycles
            Convg  =    0.6736D-10                    38 Fock formations.
              S**2 =  0.0000                  -V/T =  2.1616
 Density matrix breaks symmetry, PCut= 1.00D-04
 Density has only Abelian symmetry.
 Leave Link  508 at Sat Oct 18 12:11:35 2025, MaxMem=  4294967296 cpu:              19.2 elap:               2.4
 (Enter /opt/modules/software/gaussian/G16-C01/l601.exe)
 Copying SCF densities to generalized density rwf, IOpCl= 0 IROHF=0.
 SCF density gives NOpUse=  4 NOpAll=  8.
 Marking SCF density as not fully symmetric.

 **********************************************************************

            Population analysis using the SCF Density.

 **********************************************************************

 Orbital symmetries:
       Occupied  (E) (E) (E) (E) (E) (E) (E) (E) (E) (E) (E) (E)
                 (B1) (B2) (?A) (?A) (B2) (B2) (?A) (B2) (?A) (E)
                 (?A) (B2) (E) (?A) (?A)
       Virtual   (?A) (B2) (?A) (B2) (?A) (B2) (?A) (B2) (?A) (?B)
                 (?B) (B1) (?C) (?B) (?C) (?C) (A2) (?C) (?C) (?B)
                 (?C) (B1) (?B) (?A) (?A) (?B) (A1) (E) (B2) (E)
                 (A1)
 Unable to determine electronic state:  partially filled degenerate orbitals.
 Alpha  occ. eigenvalues --  -18.51597 -18.51597 -18.51057 -18.51057  -3.48040
 Alpha  occ. eigenvalues --   -2.07240  -2.06459  -2.06096  -0.18496  -0.17721
 Alpha  occ. eigenvalues --   -0.17508  -0.17353   0.29142   0.29379   0.30060
 Alpha  occ. eigenvalues --    0.32888   0.33030   0.35699   0.39666   0.39815
 Alpha  occ. eigenvalues --    0.39855   0.43063   0.43089   0.43244   0.43380
 Alpha  occ. eigenvalues --    0.43590   0.44714
 Alpha virt. eigenvalues --    0.48978   0.49008   0.52771   0.54258   0.54443
 Alpha virt. eigenvalues --    0.67695   0.86753   0.86823   0.87406   1.08709
 Alpha virt. eigenvalues --    1.30040   1.30190   1.31256   1.31654   1.31691
 Alpha virt. eigenvalues --    1.43256   1.43499   1.43594   1.49693   1.49769
 Alpha virt. eigenvalues --    1.49797   1.58402   1.58525   1.70112   1.70121
 Alpha virt. eigenvalues --    1.70166   1.94870   2.25886   2.25959   2.26320
 Alpha virt. eigenvalues --    3.44367
          Condensed to atoms (all electrons):
               1          2          3          4          5
     1  Ni  17.872015   0.279624   0.246502   0.246502   0.279624
     2  O    0.279624   8.447613   0.006179   0.006179   0.005924
     3  O    0.246502   0.006179   8.527585   0.005903   0.006179
     4  O    0.246502   0.006179   0.005903   8.527585   0.006179
     5  O    0.279624   0.005924   0.006179   0.006179   8.447613
 Mulliken charges:
               1
     1  Ni  -0.924267
     2  O   -0.745519
     3  O   -0.792348
     4  O   -0.792348
     5  O   -0.745519
 Sum of Mulliken charges =  -4.00000
 Mulliken charges with hydrogens summed into heavy atoms:
               1
     1  Ni  -0.924267
     2  O   -0.745519
     3  O   -0.792348
     4  O   -0.792348
     5  O   -0.745519
 Electronic spatial extent (au):  <R**2>=            669.7144
 Charge=             -4.0000 electrons
 Dipole moment (field-independent basis, Debye):
    X=              0.0000    Y=             -0.0000    Z=              0.8095  Tot=              0.8095
 Quadrupole moment (field-independent basis, Debye-Ang):
   XX=            -87.5880   YY=           -127.4402   ZZ=            -89.5587
   XY=              0.0000   XZ=              0.0000   YZ=             -0.0000
 Traceless Quadrupole moment (field-independent basis, Debye-Ang):
   XX=             13.9410   YY=            -25.9112   ZZ=             11.9702
   XY=              0.0000   XZ=              0.0000   YZ=             -0.0000
 Octapole moment (field-independent basis, Debye-Ang**2):
  XXX=              0.0000  YYY=              0.0000  ZZZ=              5.3240  XYY=              0.0000
  XXY=             -0.0000  XXZ=             22.2215  XZZ=              0.0000  YZZ=             -0.0000
  YYZ=            -20.9856  XYZ=             -0.0000
 Hexadecapole moment (field-independent basis, Debye-Ang**3):
 XXXX=           -572.8366 YYYY=          -1375.7341 ZZZZ=           -597.9959 XXXY=              0.0000
 XXXZ=              0.0000 YYYX=              0.0000 YYYZ=              0.0000 ZZZX=              0.0000
 ZZZY=             -0.0000 XXYY=           -311.2625 XXZZ=           -207.5256 YYZZ=           -337.8086
 XXYZ=              0.0000 YYXZ=              0.0000 ZZXY=              0.0000
 N-N= 2.179448976757D+02 E-N=-1.591850819497D+03  KE= 4.035028233201D+02
 Symmetry A1   KE= 1.833573218014D+02
 Symmetry A2   KE= 2.678065846415D+01
 Symmetry B1   KE= 9.313468288632D+01
 Symmetry B2   KE= 1.002301601682D+02
 No NMR shielding tensors so no spin-rotation constants.
 Leave Link  601 at Sat Oct 18 12:11:35 2025, MaxMem=  4294967296 cpu:               0.4 elap:               0.1
 (Enter /opt/modules/software/gaussian/G16-C01/l701.exe)
 ... and contract with generalized density number  0.
 Compute integral first derivatives.
 Density matrix has only Abelian symmetry.
   4 Symmetry operations used in ECPInt.
 ECPInt:  NShTT=     406 NPrTT=    3130 LenC2=     401 LenP2D=    2286.
 LDataN:  DoStor=T MaxTD1= 5 Len=  102
 Leave Link  701 at Sat Oct 18 12:11:35 2025, MaxMem=  4294967296 cpu:               0.7 elap:               0.1
 (Enter /opt/modules/software/gaussian/G16-C01/l702.exe)
 L702 exits ... SP integral derivatives will be done elsewhere.
 Leave Link  702 at Sat Oct 18 12:11:35 2025, MaxMem=  4294967296 cpu:               0.1 elap:               0.0
 (Enter /opt/modules/software/gaussian/G16-C01/l703.exe)
 Integral derivatives from FoFJK, PRISM(SPDF).
 Compute integral first derivatives, UseDBF=F ICtDFT=           0.
 Density matrix has only Abelian symmetry.
 Calling FoFJK, ICntrl=      2127 FMM=F ISym2X=1 I1Cent= 0 IOpClX= 0 NMat=1 NMatS=1 NMatT=0.
 FoFJK:  IHMeth= 1 ICntrl=    2127 DoSepK=F KAlg= 0 I1Cent=           0 FoldK=F
 IRaf=         0 NMat=       1 IRICut=       1 DoRegI=T DoRafI=F ISym2E= 1 IDoP0=0 IntGTp=1.
 FoFCou: FMM=F IPFlag=           0 FMFlag=      100000 FMFlg1=         800
         NFxFlg=           0 DoJE=F BraDBF=F KetDBF=F FulRan=T
         wScrn=  0.000000 ICntrl=      2127 IOpCl=  0 I1Cent=           0 NGrid=           0
         NMat0=    1 NMatS0=      1 NMatT0=    0 NMatD0=    1 NMtDS0=    0 NMtDT0=    0
 Petite list used in FoFCou.
 Leave Link  703 at Sat Oct 18 12:11:35 2025, MaxMem=  4294967296 cpu:               1.5 elap:               0.2
 (Enter /opt/modules/software/gaussian/G16-C01/l716.exe)
 Dipole        = 6.34637887D-17 0.00000000D+00 3.18484160D-01
 ***** Axes restored to original set *****
 -------------------------------------------------------------------
 Center     Atomic                   Forces (Hartrees/Bohr)
 Number     Number              X              Y              Z
 -------------------------------------------------------------------
      1       28           0.000000007    0.011218273    0.007932510
      2        8           0.026893133   -0.023798271   -0.016827908
      3        8           0.000000006    0.038529884   -0.015904559
      4        8           0.000000015   -0.002151633    0.041627844
      5        8          -0.026893161   -0.023798254   -0.016827887
 -------------------------------------------------------------------
 Cartesian Forces:  Max     0.041627844 RMS     0.021306246
 Leave Link  716 at Sat Oct 18 12:11:35 2025, MaxMem=  4294967296 cpu:               0.1 elap:               0.0
 (Enter /opt/modules/software/gaussian/G16-C01/l103.exe)

 GradGradGradGradGradGradGradGradGradGradGradGradGradGradGradGradGradGrad
 Berny optimization.
 FormGI is forming the generalized inverse of G from B-inverse, IUseBI=4.
 Internal  Forces:  Max     0.041627844 RMS     0.022484745
 Search for a local minimum.
 Step number   1 out of a maximum of  100
 All quantities printed in internal units (Hartrees-Bohrs-Radians)
 RMS Force = .22485D-01 SwitMx=.10000D-02 MixMth= 1
 Mixed Optimization -- RFO/linear search
 Second derivative matrix not updated -- first step.
 The second derivative matrix:
                          R1        R2        R3        R4        A1
           R1           0.15237
           R2           0.00000   0.15237
           R3           0.00000   0.00000   0.15237
           R4           0.00000   0.00000   0.00000   0.15237
           A1           0.00000   0.00000   0.00000   0.00000   0.25000
           A2           0.00000   0.00000   0.00000   0.00000   0.00000
           A3           0.00000   0.00000   0.00000   0.00000   0.00000
           A4           0.00000   0.00000   0.00000   0.00000   0.00000
           A5           0.00000   0.00000   0.00000   0.00000   0.00000
           A6           0.00000   0.00000   0.00000   0.00000   0.00000
           D1           0.00000   0.00000   0.00000   0.00000   0.00000
           D2           0.00000   0.00000   0.00000   0.00000   0.00000
           D3           0.00000   0.00000   0.00000   0.00000   0.00000
           D4           0.00000   0.00000   0.00000   0.00000   0.00000
                          A2        A3        A4        A5        A6
           A2           0.25000
           A3           0.00000   0.25000
           A4           0.00000   0.00000   0.25000
           A5           0.00000   0.00000   0.00000   0.25000
           A6           0.00000   0.00000   0.00000   0.00000   0.25000
           D1           0.00000   0.00000   0.00000   0.00000   0.00000
           D2           0.00000   0.00000   0.00000   0.00000   0.00000
           D3           0.00000   0.00000   0.00000   0.00000   0.00000
           D4           0.00000   0.00000   0.00000   0.00000   0.00000
                          D1        D2        D3        D4
           D1           0.02495
           D2           0.00000   0.02495
           D3           0.00000   0.00000   0.02495
           D4           0.00000   0.00000   0.00000   0.02495
 ITU=  0
     Eigenvalues ---    0.09420   0.10323   0.14498   0.15237   0.15237
     Eigenvalues ---    0.15237   0.15237   0.25000   0.25000
 RFO step:  Lambda=-3.69838767D-02 EMin= 9.41951947D-02
 Linear search not attempted -- first point.
 Maximum step size (   0.300) exceeded in Quadratic search.
    -- Step size scaled by   0.690
 Iteration  1 RMS(Cart)=  0.08526237 RMS(Int)=  0.00106347
 Iteration  2 RMS(Cart)=  0.00156038 RMS(Int)=  0.00015868
 Iteration  3 RMS(Cart)=  0.00000091 RMS(Int)=  0.00015867
 ITry= 1 IFail=0 DXMaxC= 1.77D-01 DCOld= 1.00D+10 DXMaxT= 3.00D-01 DXLimC= 3.00D+00 Rises=F
 Variable       Old X    -DE/DX   Delta X   Delta X   Delta X     New X
                                 (Linear)    (Quad)   (Total)
    R1        3.72182  -0.03879   0.00000  -0.14128  -0.14128   3.58054
    R2        3.72182  -0.04163   0.00000  -0.15163  -0.15163   3.57019
    R3        3.72182  -0.04163   0.00000  -0.15163  -0.15163   3.57019
    R4        3.72182  -0.03879   0.00000  -0.14128  -0.14128   3.58054
    A1        1.91063  -0.00311   0.00000  -0.00888  -0.00920   1.90143
    A2        1.91063  -0.00542   0.00000  -0.01186  -0.01209   1.89854
    A3        1.91063   0.01928   0.00000   0.05782   0.05768   1.96832
    A4        1.91063  -0.00122   0.00000  -0.01814  -0.01844   1.89219
    A5        1.91063  -0.00540   0.00000  -0.00969  -0.00985   1.90078
    A6        1.91063  -0.00414   0.00000  -0.00924  -0.00942   1.90121
    D1       -2.09440   0.00788   0.00000   0.02925   0.02909  -2.06531
    D2        2.09440   0.00469   0.00000   0.01859   0.01856   2.11296
    D3       -2.09440  -0.00264   0.00000  -0.01522  -0.01521  -2.10960
    D4        2.09440  -0.00733   0.00000  -0.03382  -0.03377   2.06063
         Item               Value     Threshold  Converged?
 Maximum Force            0.041628     0.000450     NO 
 RMS     Force            0.022485     0.000300     NO 
 Maximum Displacement     0.177098     0.001800     NO 
 RMS     Displacement     0.085091     0.001200     NO 
 Predicted change in Energy=-1.842148D-02
 Lowest energy point so far.  Saving SCF results.
 GradGradGradGradGradGradGradGradGradGradGradGradGradGradGradGradGradGrad

 Leave Link  103 at Sat Oct 18 12:11:35 2025, MaxMem=  4294967296 cpu:               0.0 elap:               0.0
 (Enter /opt/modules/software/gaussian/G16-C01/l202.exe)
                          Input orientation:                          
 ---------------------------------------------------------------------
 Center     Atomic      Atomic             Coordinates (Angstroms)
 Number     Number       Type             X           Y           Z
 ---------------------------------------------------------------------
      1         28           0        1.499498   -0.847489    3.073365
      2          8           0       -0.078710    0.009699    3.677121
      3          8           0        1.499591   -2.634626    3.686106
      4          8           0        1.497781   -0.864319    1.184180
      5          8           0        3.077191    0.009289    3.679049
 ---------------------------------------------------------------------
                    Distance matrix (angstroms):
                    1          2          3          4          5
     1  Ni   0.000000
     2  O    1.894739   0.000000
     3  O    1.889261   3.079541   0.000000
     4  O    1.889261   3.076360   3.064902   0.000000
     5  O    1.894739   3.155901   3.078824   3.079302   0.000000
 Stoichiometry    NiO4(4-)
 Framework group  C1[X(NiO4)]
 Deg. of freedom     9
 Full point group                 C1      NOp   1
 Omega: Change in point group or standard orientation.

 Old FWG=D02D [O(Ni1),2SGD(O2)]
 New FWG=C01  [X(Ni1O4)]
 RotChk:  IX=2 Diff= 1.98D+00
 Largest Abelian subgroup         C1      NOp   1
 Largest concise Abelian subgroup C1      NOp   1
                         Standard orientation:                         
 ---------------------------------------------------------------------
 Center     Atomic      Atomic             Coordinates (Angstroms)
 Number     Number       Type             X           Y           Z
 ---------------------------------------------------------------------
      1         28           0       -0.000398   -0.000420    0.014952
      2          8           0        1.570121   -0.026393    1.074589
      3          8           0       -0.023064    1.586967   -1.009254
      4          8           0        0.039458   -1.473199   -1.167690
      5          8           0       -1.585123   -0.085906    1.050024
 ---------------------------------------------------------------------
 Rotational constants (GHZ):           3.3839631           3.2843704           3.2651383
 Leave Link  202 at Sat Oct 18 12:11:35 2025, MaxMem=  4294967296 cpu:               0.0 elap:               0.0
 (Enter /opt/modules/software/gaussian/G16-C01/l301.exe)
 Basis read from rwf:  (5D, 7F)
 Pseudo-potential data read from rwf file.
 There are    60 symmetry adapted cartesian basis functions of A   symmetry.
 There are    58 symmetry adapted basis functions of A   symmetry.
    58 basis functions,   152 primitive gaussians,    60 cartesian basis functions
    27 alpha electrons       27 beta electrons
       nuclear repulsion energy       226.8892959467 Hartrees.
 IExCor= 1009 DFT=T Ex+Corr=PBE1PBE ExCW=0 ScaHFX=  0.250000
 ScaDFX=  0.750000  0.750000  1.000000  1.000000 ScalE2=  1.000000  1.000000
 IRadAn=      5 IRanWt=     -1 IRanGd=            0 ICorTp=0 IEmpDi=  4
 NAtoms=    5 NActive=    5 NUniq=    5 SFac= 1.00D+00 NAtFMM=   60 NAOKFM=F Big=F
 Integral buffers will be    131072 words long.
 Raffenetti 2 integral format.
 Two-electron integral symmetry is turned on.
 No density basis found on file    724.
 Leave Link  301 at Sat Oct 18 12:11:35 2025, MaxMem=  4294967296 cpu:               0.2 elap:               0.0
 (Enter /opt/modules/software/gaussian/G16-C01/l302.exe)
 NPDir=0 NMtPBC=     1 NCelOv=     1 NCel=       1 NClECP=     1 NCelD=      1
         NCelK=      1 NCelE2=     1 NClLst=     1 CellRange=     0.0.
 One-electron integrals computed using PRISM.
 One-electron integral symmetry used in STVInt
   1 Symmetry operations used in ECPInt.
 ECPInt:  NShTT=     406 NPrTT=    3130 LenC2=     401 LenP2D=    2296.
 LDataN:  DoStor=T MaxTD1= 4 Len=   56
 NBasis=    58 RedAO= T EigKep=  3.77D-02  NBF=    58
 NBsUse=    58 1.00D-06 EigRej= -1.00D+00 NBFU=    58
 Precomputing XC quadrature grid using
 IXCGrd= 4 IRadAn=           5 IRanWt=          -1 IRanGd=           0 AccXCQ= 0.00D+00.
 Generated NRdTot=       0 NPtTot=           0 NUsed=           0 NTot=          32
 NSgBfM=    60    60    60    60    60 MxSgAt=     5 MxSgA2=     5.
 Leave Link  302 at Sat Oct 18 12:11:35 2025, MaxMem=  4294967296 cpu:               0.6 elap:               0.1
 (Enter /opt/modules/software/gaussian/G16-C01/l303.exe)
 DipDrv:  MaxL=1.
 Leave Link  303 at Sat Oct 18 12:11:35 2025, MaxMem=  4294967296 cpu:               0.1 elap:               0.0
 (Enter /opt/modules/software/gaussian/G16-C01/l401.exe)
 Initial guess from the checkpoint file:  "nio4-q4-opt.chk"
 B after Tr=    -0.000000    0.000000    0.000000
         Rot=    0.713765   -0.021093   -0.015752    0.699890 Ang= -88.92 deg.
 Guess basis will be translated and rotated to current coordinates.
 JPrj=2 DoOrth=T DoCkMO=T.
 Generating alternative initial guess.
 ExpMin= 2.40D-02 ExpMax= 7.82D+03 ExpMxC= 2.73D+02 IAcc=3 IRadAn=         5 AccDes= 0.00D+00
 Harris functional with IExCor= 1009 and IRadAn=       5 diagonalized for initial guess.
 HarFok:  IExCor= 1009 AccDes= 0.00D+00 IRadAn=         5 IDoV= 1 UseB2=F ITyADJ=14
 ICtDFT=  3500011 ScaDFX=  1.000000  1.000000  1.000000  1.000000
 FoFCou: FMM=F IPFlag=           0 FMFlag=      100000 FMFlg1=           0
         NFxFlg=           0 DoJE=T BraDBF=F KetDBF=T FulRan=T
         wScrn=  0.000000 ICntrl=       500 IOpCl=  0 I1Cent=   200000004 NGrid=           0
         NMat0=    1 NMatS0=      1 NMatT0=    0 NMatD0=    1 NMtDS0=    0 NMtDT0=    0
 Petite list used in FoFCou.
 Harris En= -471.055267574909    
 Leave Link  401 at Sat Oct 18 12:11:35 2025, MaxMem=  4294967296 cpu:               1.0 elap:               0.1
 (Enter /opt/modules/software/gaussian/G16-C01/l502.exe)
 Keep R1 ints in memory in canonical form, NReq=8545930.
 FoFCou: FMM=F IPFlag=           0 FMFlag=           0 FMFlg1=           0
         NFxFlg=           0 DoJE=F BraDBF=F KetDBF=F FulRan=T
         wScrn=  0.000000 ICntrl=       600 IOpCl=  0 I1Cent=           0 NGrid=           0
         NMat0=    1 NMatS0=   1711 NMatT0=    0 NMatD0=    1 NMtDS0=    0 NMtDT0=    0
 Symmetry not used in FoFCou.
 Two-electron integral symmetry not used.
 Closed shell SCF:
 Using DIIS extrapolation, IDIIS=  1040.
 NGot=  4294967296 LenX=  4293494118 LenY=  4293490077
 Requested convergence on RMS density matrix=1.00D-08 within  20 cycles.
 Requested convergence on MAX density matrix=1.00D-06.
 Requested convergence on             energy=1.00D-06.
 No special actions if energy rises.

 Cycle   1  Pass 1  IDiag  1:
 E= -468.741775209533    
 DIIS: error= 7.96D-03 at cycle   1 NSaved=   1.
 NSaved= 1 IEnMin= 1 EnMin= -468.741775209533     IErMin= 1 ErrMin= 7.96D-03
 ErrMax= 7.96D-03  0.00D+00 EMaxC= 1.00D-01 BMatC= 1.82D-03 BMatP= 1.82D-03
 IDIUse=3 WtCom= 9.20D-01 WtEn= 7.96D-02
 Coeff-Com:  0.100D+01
 Coeff-En:   0.100D+01
 Coeff:      0.100D+01
 Gap=     0.418 Goal=   None    Shift=    0.000
 GapD=    0.418 DampG=2.000 DampE=1.000 DampFc=2.0000 IDamp=-1.
 RMSDP=7.01D-03 MaxDP=2.26D-01              OVMax= 4.38D-02

 Cycle   2  Pass 1  IDiag  1:
 E= -468.698957067581     Delta-E=        0.042818141953 Rises=F Damp=F
 DIIS: error= 3.53D-02 at cycle   2 NSaved=   2.
 NSaved= 2 IEnMin= 1 EnMin= -468.741775209533     IErMin= 1 ErrMin= 7.96D-03
 ErrMax= 3.53D-02  0.00D+00 EMaxC= 1.00D-01 BMatC= 6.64D-02 BMatP= 1.82D-03
 IDIUse=2 WtCom= 0.00D+00 WtEn= 1.00D+00
 Coeff-En:   0.914D+00 0.857D-01
 Coeff:      0.914D+00 0.857D-01
 Gap=     0.040 Goal=   None    Shift=    0.000
 RMSDP=2.89D-03 MaxDP=8.02D-02 DE= 4.28D-02 OVMax= 4.89D-02

 Cycle   3  Pass 1  IDiag  1:
 E= -468.743736159565     Delta-E=       -0.044779091985 Rises=F Damp=F
 DIIS: error= 6.03D-03 at cycle   3 NSaved=   3.
 NSaved= 3 IEnMin= 3 EnMin= -468.743736159565     IErMin= 3 ErrMin= 6.03D-03
 ErrMax= 6.03D-03  0.00D+00 EMaxC= 1.00D-01 BMatC= 1.93D-03 BMatP= 1.82D-03
 IDIUse=3 WtCom= 9.40D-01 WtEn= 6.03D-02
 Coeff-Com:  0.641D-01-0.176D+00 0.111D+01
 Coeff-En:   0.233D+00 0.000D+00 0.767D+00
 Coeff:      0.743D-01-0.165D+00 0.109D+01
 Gap=     0.040 Goal=   None    Shift=    0.000
 RMSDP=2.12D-03 MaxDP=4.93D-02 DE=-4.48D-02 OVMax= 3.18D-02

 Cycle   4  Pass 1  IDiag  1:
 E= -468.742499645825     Delta-E=        0.001236513740 Rises=F Damp=F
 DIIS: error= 4.55D-03 at cycle   4 NSaved=   4.
 NSaved= 4 IEnMin= 3 EnMin= -468.743736159565     IErMin= 4 ErrMin= 4.55D-03
 ErrMax= 4.55D-03  0.00D+00 EMaxC= 1.00D-01 BMatC= 3.06D-03 BMatP= 1.82D-03
 IDIUse=3 WtCom= 1.29D-01 WtEn= 8.71D-01
 Coeff-Com: -0.142D-01-0.136D+00 0.954D+00 0.196D+00
 Coeff-En:   0.000D+00 0.000D+00 0.594D+00 0.406D+00
 Coeff:     -0.183D-02-0.176D-01 0.640D+00 0.379D+00
 Gap=     0.041 Goal=   None    Shift=    0.000
 RMSDP=1.95D-03 MaxDP=2.42D-02 DE= 1.24D-03 OVMax= 3.66D-02

 Cycle   5  Pass 1  IDiag  1:
 E= -468.732811731524     Delta-E=        0.009687914301 Rises=F Damp=F
 DIIS: error= 2.04D-02 at cycle   5 NSaved=   5.
 NSaved= 5 IEnMin= 3 EnMin= -468.743736159565     IErMin= 4 ErrMin= 4.55D-03
 ErrMax= 2.04D-02  0.00D+00 EMaxC= 1.00D-01 BMatC= 1.64D-02 BMatP= 1.82D-03
 IDIUse=2 WtCom= 0.00D+00 WtEn= 1.00D+00
 EnCoef did     1 forward-backward iterations
 Coeff-En:   0.000D+00 0.000D+00 0.563D+00 0.336D+00 0.101D+00
 Coeff:      0.000D+00 0.000D+00 0.563D+00 0.336D+00 0.101D+00
 Gap=     0.040 Goal=   None    Shift=    0.000
 RMSDP=1.37D-03 MaxDP=3.69D-02 DE= 9.69D-03 OVMax= 2.19D-02

 Cycle   6  Pass 1  IDiag  1:
 E= -468.744439452336     Delta-E=       -0.011627720812 Rises=F Damp=F
 DIIS: error= 6.18D-03 at cycle   6 NSaved=   6.
 NSaved= 6 IEnMin= 6 EnMin= -468.744439452336     IErMin= 4 ErrMin= 4.55D-03
 ErrMax= 6.18D-03  0.00D+00 EMaxC= 1.00D-01 BMatC= 1.55D-03 BMatP= 1.82D-03
 IDIUse=3 WtCom= 9.38D-01 WtEn= 6.18D-02
 EnCoef did     1 forward-backward iterations
 Coeff-Com: -0.687D-02 0.567D-01-0.745D-02 0.743D-01-0.254D+00 0.114D+01
 Coeff-En:   0.000D+00 0.000D+00 0.389D+00 0.176D+00 0.000D+00 0.435D+00
 Coeff:     -0.645D-02 0.532D-01 0.171D-01 0.806D-01-0.238D+00 0.109D+01
 Gap=     0.039 Goal=   None    Shift=    0.000
 RMSDP=9.26D-04 MaxDP=2.86D-02 DE=-1.16D-02 OVMax= 1.70D-02

 Cycle   7  Pass 1  IDiag  1:
 E= -468.745670234688     Delta-E=       -0.001230782352 Rises=F Damp=F
 DIIS: error= 6.66D-04 at cycle   7 NSaved=   7.
 NSaved= 7 IEnMin= 7 EnMin= -468.745670234688     IErMin= 7 ErrMin= 6.66D-04
 ErrMax= 6.66D-04  0.00D+00 EMaxC= 1.00D-01 BMatC= 1.69D-05 BMatP= 1.55D-03
 IDIUse=3 WtCom= 9.93D-01 WtEn= 6.66D-03
 Coeff-Com:  0.359D-02-0.231D-02-0.981D-01-0.313D-01 0.109D+00-0.318D+00
 Coeff-Com:  0.134D+01
 Coeff-En:   0.000D+00 0.000D+00 0.000D+00 0.000D+00 0.000D+00 0.000D+00
 Coeff-En:   0.100D+01
 Coeff:      0.357D-02-0.230D-02-0.974D-01-0.311D-01 0.109D+00-0.316D+00
 Coeff:      0.133D+01
 Gap=     0.039 Goal=   None    Shift=    0.000
 RMSDP=5.75D-04 MaxDP=1.02D-02 DE=-1.23D-03 OVMax= 1.79D-02

 Cycle   8  Pass 1  IDiag  1:
 E= -468.745749401434     Delta-E=       -0.000079166746 Rises=F Damp=F
 DIIS: error= 2.39D-04 at cycle   8 NSaved=   8.
 NSaved= 8 IEnMin= 8 EnMin= -468.745749401434     IErMin= 8 ErrMin= 2.39D-04
 ErrMax= 2.39D-04  0.00D+00 EMaxC= 1.00D-01 BMatC= 3.33D-06 BMatP= 1.69D-05
 IDIUse=3 WtCom= 9.98D-01 WtEn= 2.39D-03
 Coeff-Com:  0.378D-02-0.448D-02-0.865D-01-0.279D-01 0.114D+00-0.357D+00
 Coeff-Com:  0.103D+01 0.327D+00
 Coeff-En:   0.000D+00 0.000D+00 0.000D+00 0.000D+00 0.000D+00 0.000D+00
 Coeff-En:   0.000D+00 0.100D+01
 Coeff:      0.377D-02-0.447D-02-0.863D-01-0.278D-01 0.113D+00-0.356D+00
 Coeff:      0.103D+01 0.328D+00
 Gap=     0.039 Goal=   None    Shift=    0.000
 RMSDP=1.64D-04 MaxDP=2.58D-03 DE=-7.92D-05 OVMax= 5.03D-03

 Cycle   9  Pass 1  IDiag  1:
 E= -468.745763721922     Delta-E=       -0.000014320489 Rises=F Damp=F
 DIIS: error= 2.18D-04 at cycle   9 NSaved=   9.
 NSaved= 9 IEnMin= 9 EnMin= -468.745763721922     IErMin= 9 ErrMin= 2.18D-04
 ErrMax= 2.18D-04  0.00D+00 EMaxC= 1.00D-01 BMatC= 4.08D-06 BMatP= 3.33D-06
 IDIUse=3 WtCom= 9.98D-01 WtEn= 2.39D-03
 Coeff-Com:  0.401D-04 0.186D-02 0.483D-01 0.390D-01-0.219D-01 0.631D-02
 Coeff-Com: -0.179D+01 0.145D+01 0.128D+01
 Coeff-En:   0.000D+00 0.000D+00 0.000D+00 0.000D+00 0.000D+00 0.000D+00
 Coeff-En:   0.000D+00 0.000D+00 0.100D+01
 Coeff:      0.400D-04 0.185D-02 0.481D-01 0.389D-01-0.219D-01 0.629D-02
 Coeff:     -0.179D+01 0.144D+01 0.127D+01
 Gap=     0.038 Goal=   None    Shift=    0.000
 RMSDP=1.03D-03 MaxDP=1.58D-02 DE=-1.43D-05 OVMax= 3.36D-02

 Cycle  10  Pass 1  IDiag  1:
 E= -468.745827468665     Delta-E=       -0.000063746743 Rises=F Damp=F
 DIIS: error= 8.16D-05 at cycle  10 NSaved=  10.
 NSaved=10 IEnMin=10 EnMin= -468.745827468665     IErMin=10 ErrMin= 8.16D-05
 ErrMax= 8.16D-05  0.00D+00 EMaxC= 1.00D-01 BMatC= 1.16D-06 BMatP= 3.33D-06
 IDIUse=1 WtCom= 1.00D+00 WtEn= 0.00D+00
 Coeff-Com: -0.404D-03 0.719D-03 0.538D-01 0.349D-01-0.353D-01 0.544D-01
 Coeff-Com: -0.161D+01 0.118D+01 0.107D+01 0.252D+00
 Coeff:     -0.404D-03 0.719D-03 0.538D-01 0.349D-01-0.353D-01 0.544D-01
 Coeff:     -0.161D+01 0.118D+01 0.107D+01 0.252D+00
 Gap=     0.038 Goal=   None    Shift=    0.000
 RMSDP=1.06D-04 MaxDP=1.44D-03 DE=-6.37D-05 OVMax= 3.44D-03

 Cycle  11  Pass 1  IDiag  1:
 E= -468.745830747211     Delta-E=       -0.000003278546 Rises=F Damp=F
 DIIS: error= 5.15D-05 at cycle  11 NSaved=  11.
 NSaved=11 IEnMin=11 EnMin= -468.745830747211     IErMin=11 ErrMin= 5.15D-05
 ErrMax= 5.15D-05  0.00D+00 EMaxC= 1.00D-01 BMatC= 3.98D-07 BMatP= 1.16D-06
 IDIUse=1 WtCom= 1.00D+00 WtEn= 0.00D+00
 Coeff-Com: -0.112D-02-0.505D-02 0.345D-01-0.221D-02-0.443D-01 0.128D+00
 Coeff-Com:  0.702D-02-0.253D+00-0.153D+00 0.410D+00 0.880D+00
 Coeff:     -0.112D-02-0.505D-02 0.345D-01-0.221D-02-0.443D-01 0.128D+00
 Coeff:      0.702D-02-0.253D+00-0.153D+00 0.410D+00 0.880D+00
 Gap=     0.038 Goal=   None    Shift=    0.000
 RMSDP=1.99D-04 MaxDP=2.30D-03 DE=-3.28D-06 OVMax= 6.75D-03

 Cycle  12  Pass 1  IDiag  1:
 E= -468.745833952179     Delta-E=       -0.000003204968 Rises=F Damp=F
 DIIS: error= 6.72D-05 at cycle  12 NSaved=  12.
 NSaved=12 IEnMin=12 EnMin= -468.745833952179     IErMin=11 ErrMin= 5.15D-05
 ErrMax= 6.72D-05  0.00D+00 EMaxC= 1.00D-01 BMatC= 3.26D-07 BMatP= 3.98D-07
 IDIUse=1 WtCom= 1.00D+00 WtEn= 0.00D+00
 Coeff-Com: -0.279D-03 0.364D-03-0.127D-02-0.951D-02 0.408D-02-0.232D-02
 Coeff-Com:  0.270D+00-0.254D+00-0.221D+00 0.610D-01 0.243D+00 0.909D+00
 Coeff:     -0.279D-03 0.364D-03-0.127D-02-0.951D-02 0.408D-02-0.232D-02
 Coeff:      0.270D+00-0.254D+00-0.221D+00 0.610D-01 0.243D+00 0.909D+00
 Gap=     0.038 Goal=   None    Shift=    0.000
 RMSDP=7.79D-05 MaxDP=8.29D-04 DE=-3.20D-06 OVMax= 2.69D-03

 Cycle  13  Pass 1  IDiag  1:
 E= -468.745834714095     Delta-E=       -0.000000761916 Rises=F Damp=F
 DIIS: error= 1.18D-05 at cycle  13 NSaved=  13.
 NSaved=13 IEnMin=13 EnMin= -468.745834714095     IErMin=13 ErrMin= 1.18D-05
 ErrMax= 1.18D-05  0.00D+00 EMaxC= 1.00D-01 BMatC= 1.22D-08 BMatP= 3.26D-07
 IDIUse=1 WtCom= 1.00D+00 WtEn= 0.00D+00
 Coeff-Com: -0.452D-06-0.341D-03 0.123D-03-0.635D-03 0.123D-02-0.753D-02
 Coeff-Com: -0.686D-01 0.897D-01 0.653D-01-0.675D-01-0.174D+00-0.150D+00
 Coeff-Com:  0.131D+01
 Coeff:     -0.452D-06-0.341D-03 0.123D-03-0.635D-03 0.123D-02-0.753D-02
 Coeff:     -0.686D-01 0.897D-01 0.653D-01-0.675D-01-0.174D+00-0.150D+00
 Coeff:      0.131D+01
 Gap=     0.038 Goal=   None    Shift=    0.000
 RMSDP=2.83D-05 MaxDP=2.99D-04 DE=-7.62D-07 OVMax= 6.33D-04

 Cycle  14  Pass 1  IDiag  1:
 E= -468.745834835760     Delta-E=       -0.000000121665 Rises=F Damp=F
 DIIS: error= 8.63D-06 at cycle  14 NSaved=  14.
 NSaved=14 IEnMin=14 EnMin= -468.745834835760     IErMin=14 ErrMin= 8.63D-06
 ErrMax= 8.63D-06  0.00D+00 EMaxC= 1.00D-01 BMatC= 2.22D-09 BMatP= 1.22D-08
 IDIUse=1 WtCom= 1.00D+00 WtEn= 0.00D+00
 Coeff-Com:  0.113D-04 0.238D-03-0.199D-03 0.281D-02-0.101D-02 0.313D-02
 Coeff-Com: -0.282D-01 0.205D-01 0.196D-01-0.184D-02-0.134D-01-0.138D+00
 Coeff-Com: -0.146D+00 0.128D+01
 Coeff:      0.113D-04 0.238D-03-0.199D-03 0.281D-02-0.101D-02 0.313D-02
 Coeff:     -0.282D-01 0.205D-01 0.196D-01-0.184D-02-0.134D-01-0.138D+00
 Coeff:     -0.146D+00 0.128D+01
 Gap=     0.038 Goal=   None    Shift=    0.000
 RMSDP=1.98D-05 MaxDP=2.92D-04 DE=-1.22D-07 OVMax= 4.23D-04

 Cycle  15  Pass 1  IDiag  1:
 E= -468.745834875835     Delta-E=       -0.000000040075 Rises=F Damp=F
 DIIS: error= 5.18D-06 at cycle  15 NSaved=  15.
 NSaved=15 IEnMin=15 EnMin= -468.745834875835     IErMin=15 ErrMin= 5.18D-06
 ErrMax= 5.18D-06  0.00D+00 EMaxC= 1.00D-01 BMatC= 1.46D-09 BMatP= 2.22D-09
 IDIUse=1 WtCom= 1.00D+00 WtEn= 0.00D+00
 Coeff-Com:  0.648D-05 0.768D-04 0.471D-04-0.440D-04-0.267D-03 0.249D-02
 Coeff-Com:  0.574D-02-0.985D-02-0.925D-02 0.170D-01 0.306D-01-0.257D-01
 Coeff-Com: -0.116D+00-0.322D+00 0.143D+01
 Coeff:      0.648D-05 0.768D-04 0.471D-04-0.440D-04-0.267D-03 0.249D-02
 Coeff:      0.574D-02-0.985D-02-0.925D-02 0.170D-01 0.306D-01-0.257D-01
 Coeff:     -0.116D+00-0.322D+00 0.143D+01
 Gap=     0.038 Goal=   None    Shift=    0.000
 RMSDP=1.73D-05 MaxDP=3.19D-04 DE=-4.01D-08 OVMax= 3.62D-04

 Cycle  16  Pass 1  IDiag  1:
 E= -468.745834897085     Delta-E=       -0.000000021250 Rises=F Damp=F
 DIIS: error= 1.71D-06 at cycle  16 NSaved=  16.
 NSaved=16 IEnMin=16 EnMin= -468.745834897085     IErMin=16 ErrMin= 1.71D-06
 ErrMax= 1.71D-06  0.00D+00 EMaxC= 1.00D-01 BMatC= 2.05D-10 BMatP= 1.46D-09
 IDIUse=1 WtCom= 1.00D+00 WtEn= 0.00D+00
 Coeff-Com: -0.440D-06-0.459D-04 0.195D-03-0.298D-03 0.102D-03-0.133D-02
 Coeff-Com: -0.411D-02 0.656D-02 0.413D-02-0.698D-02-0.124D-01 0.449D-01
 Coeff-Com:  0.345D-01-0.568D-01-0.604D+00 0.160D+01
 Coeff:     -0.440D-06-0.459D-04 0.195D-03-0.298D-03 0.102D-03-0.133D-02
 Coeff:     -0.411D-02 0.656D-02 0.413D-02-0.698D-02-0.124D-01 0.449D-01
 Coeff:      0.345D-01-0.568D-01-0.604D+00 0.160D+01
 Gap=     0.038 Goal=   None    Shift=    0.000
 RMSDP=1.60D-05 MaxDP=3.34D-04 DE=-2.12D-08 OVMax= 3.61D-04

 Cycle  17  Pass 1  IDiag  1:
 E= -468.745834911579     Delta-E=       -0.000000014494 Rises=F Damp=F
 DIIS: error= 1.70D-06 at cycle  17 NSaved=  17.
 NSaved=17 IEnMin=17 EnMin= -468.745834911579     IErMin=17 ErrMin= 1.70D-06
 ErrMax= 1.70D-06  0.00D+00 EMaxC= 1.00D-01 BMatC= 1.49D-10 BMatP= 2.05D-10
 IDIUse=1 WtCom= 1.00D+00 WtEn= 0.00D+00
 Coeff-Com: -0.202D-06-0.583D-05-0.213D-03 0.537D-04 0.119D-03-0.166D-03
 Coeff-Com:  0.503D-02-0.272D-02-0.432D-02 0.300D-03-0.165D-02-0.177D-01
 Coeff-Com:  0.364D-01 0.808D-01-0.123D+00-0.101D+01 0.204D+01
 Coeff:     -0.202D-06-0.583D-05-0.213D-03 0.537D-04 0.119D-03-0.166D-03
 Coeff:      0.503D-02-0.272D-02-0.432D-02 0.300D-03-0.165D-02-0.177D-01
 Coeff:      0.364D-01 0.808D-01-0.123D+00-0.101D+01 0.204D+01
 Gap=     0.038 Goal=   None    Shift=    0.000
 RMSDP=2.24D-05 MaxDP=4.91D-04 DE=-1.45D-08 OVMax= 5.13D-04

 Cycle  18  Pass 1  IDiag  1:
 E= -468.745834929667     Delta-E=       -0.000000018088 Rises=F Damp=F
 DIIS: error= 1.59D-06 at cycle  18 NSaved=  18.
 NSaved=18 IEnMin=18 EnMin= -468.745834929667     IErMin=18 ErrMin= 1.59D-06
 ErrMax= 1.59D-06  0.00D+00 EMaxC= 1.00D-01 BMatC= 1.28D-10 BMatP= 1.49D-10
 IDIUse=1 WtCom= 1.00D+00 WtEn= 0.00D+00
 Coeff-Com: -0.292D-05 0.780D-05 0.266D-03-0.175D-03-0.969D-04 0.666D-03
 Coeff-Com: -0.322D-02-0.250D-02-0.161D-03 0.931D-02 0.223D-01 0.259D-01
 Coeff-Com: -0.199D+00-0.146D+00 0.136D+01 0.541D+00-0.667D+01 0.606D+01
 Coeff:     -0.292D-05 0.780D-05 0.266D-03-0.175D-03-0.969D-04 0.666D-03
 Coeff:     -0.322D-02-0.250D-02-0.161D-03 0.931D-02 0.223D-01 0.259D-01
 Coeff:     -0.199D+00-0.146D+00 0.136D+01 0.541D+00-0.667D+01 0.606D+01
 Gap=     0.038 Goal=   None    Shift=    0.000
 RMSDP=8.08D-05 MaxDP=1.85D-03 DE=-1.81D-08 OVMax= 1.86D-03

 Cycle  19  Pass 1  IDiag  1:
 E= -468.745834981765     Delta-E=       -0.000000052097 Rises=F Damp=F
 DIIS: error= 1.38D-06 at cycle  19 NSaved=  19.
 NSaved=19 IEnMin=19 EnMin= -468.745834981765     IErMin=19 ErrMin= 1.38D-06
 ErrMax= 1.38D-06  0.00D+00 EMaxC= 1.00D-01 BMatC= 1.12D-10 BMatP= 1.28D-10
 IDIUse=1 WtCom= 1.00D+00 WtEn= 0.00D+00
 Coeff-Com:  0.404D-05-0.140D-05-0.638D-04 0.103D-03 0.128D-03-0.725D-03
 Coeff-Com: -0.280D-02 0.720D-02 0.250D-02-0.576D-02-0.170D-01-0.143D-02
 Coeff-Com:  0.121D+00 0.854D-02-0.824D+00 0.578D+00 0.236D+01-0.321D+01
 Coeff-Com:  0.199D+01
 Coeff:      0.404D-05-0.140D-05-0.638D-04 0.103D-03 0.128D-03-0.725D-03
 Coeff:     -0.280D-02 0.720D-02 0.250D-02-0.576D-02-0.170D-01-0.143D-02
 Coeff:      0.121D+00 0.854D-02-0.824D+00 0.578D+00 0.236D+01-0.321D+01
 Coeff:      0.199D+01
 Gap=     0.038 Goal=   None    Shift=    0.000
 RMSDP=4.39D-05 MaxDP=1.06D-03 DE=-5.21D-08 OVMax= 1.01D-03

 Cycle  20  Pass 1  IDiag  1:
 E= -468.745835003031     Delta-E=       -0.000000021267 Rises=F Damp=F
 DIIS: error= 1.14D-06 at cycle  20 NSaved=  20.
 NSaved=20 IEnMin=20 EnMin= -468.745835003031     IErMin=20 ErrMin= 1.14D-06
 ErrMax= 1.14D-06  0.00D+00 EMaxC= 1.00D-01 BMatC= 6.02D-11 BMatP= 1.12D-10
 IDIUse=1 WtCom= 1.00D+00 WtEn= 0.00D+00
 Coeff-Com: -0.174D-06 0.960D-05-0.515D-04 0.227D-05-0.718D-04 0.500D-03
 Coeff-Com:  0.408D-02-0.596D-02-0.297D-02 0.299D-02 0.101D-01-0.133D-01
 Coeff-Com: -0.495D-01 0.646D-01 0.293D+00-0.929D+00 0.578D+00 0.493D+00
 Coeff-Com: -0.163D+01 0.219D+01
 Coeff:     -0.174D-06 0.960D-05-0.515D-04 0.227D-05-0.718D-04 0.500D-03
 Coeff:      0.408D-02-0.596D-02-0.297D-02 0.299D-02 0.101D-01-0.133D-01
 Coeff:     -0.495D-01 0.646D-01 0.293D+00-0.929D+00 0.578D+00 0.493D+00
 Coeff:     -0.163D+01 0.219D+01
 Gap=     0.038 Goal=   None    Shift=    0.000
 RMSDP=2.69D-05 MaxDP=6.96D-04 DE=-2.13D-08 OVMax= 6.22D-04

 >>>>>>>>>> Convergence criterion not met.
 SCF Done:  E(RPBE1PBE) =  -468.745835003     A.U. after   21 cycles
            NFock= 20  Conv=0.27D-04     -V/T= 2.1617
 KE= 4.034865832339D+02 PE=-1.609249576971D+03 EE= 5.101278627869D+02
 Leave Link  502 at Sat Oct 18 12:11:36 2025, MaxMem=  4294967296 cpu:               8.7 elap:               1.1
 (Enter /opt/modules/software/gaussian/G16-C01/l508.exe)
 Keep R1 ints in memory in canonical form, NReq=8546330.
 FoFCou: FMM=F IPFlag=           0 FMFlag=           0 FMFlg1=           0
         NFxFlg=           0 DoJE=F BraDBF=F KetDBF=F FulRan=T
         wScrn=  0.000000 ICntrl=       600 IOpCl=  0 I1Cent=           0 NGrid=           0
         NMat0=    1 NMatS0=   1711 NMatT0=    0 NMatD0=    1 NMtDS0=    0 NMtDT0=    0
 Symmetry not used in FoFCou.
 Two-electron integral symmetry not used.
 Tight linear equation convergence will be used.
 RPBE1PBE wavefunction.
 Quadratic Convergence SCF Method.
 Line search only if initial step raises energy.
 Iteration   1 EE= -468.745835015521                                    Grad=1.098D-05 Max rot=    0.0002 deg.
 QCNR:  CnvC1=1.10D-10 CnvC2=1.10D-09
 LinEq1:  Iter=  0 NonCon=     1 RMS=3.71D-06 Max=8.92D-05 NDo=     1
 AX will form     1 AO Fock derivatives at one time.
 LinEq1:  Iter=  1 NonCon=     1 RMS=3.86D-06 Max=4.99D-05 NDo=     1
 LinEq1:  Iter=  2 NonCon=     1 RMS=1.06D-06 Max=1.53D-05 NDo=     1
 LinEq1:  Iter=  3 NonCon=     1 RMS=3.71D-06 Max=6.11D-05 NDo=     1
 LinEq1:  Iter=  4 NonCon=     1 RMS=6.93D-06 Max=8.10D-05 NDo=     1
 LinEq1:  Iter=  5 NonCon=     1 RMS=1.23D-05 Max=1.98D-04 NDo=     1
 LinEq1:  Iter=  6 NonCon=     1 RMS=1.78D-05 Max=2.87D-04 NDo=     1
 LinEq1:  Iter=  7 NonCon=     1 RMS=2.88D-05 Max=3.04D-04 NDo=     1
 LinEq1:  Iter=  8 NonCon=     1 RMS=3.00D-05 Max=3.11D-04 NDo=     1
 LinEq1:  Iter=  9 NonCon=     1 RMS=1.17D-05 Max=1.40D-04 NDo=     1
 LinEq1:  Iter= 10 NonCon=     1 RMS=2.72D-06 Max=2.74D-05 NDo=     1
 LinEq1:  Iter= 11 NonCon=     1 RMS=7.09D-07 Max=6.77D-06 NDo=     1
 LinEq1:  Iter= 12 NonCon=     1 RMS=2.61D-07 Max=3.45D-06 NDo=     1
 LinEq1:  Iter= 13 NonCon=     1 RMS=6.88D-08 Max=7.27D-07 NDo=     1
 LinEq1:  Iter= 14 NonCon=     1 RMS=2.08D-08 Max=2.01D-07 NDo=     1
 LinEq1:  Iter= 15 NonCon=     1 RMS=7.76D-09 Max=9.69D-08 NDo=     1
 LinEq1:  Iter= 16 NonCon=     1 RMS=1.96D-09 Max=1.82D-08 NDo=     1
[...]
 Coeff:     -0.683D-04-0.279D-03-0.352D-03 0.200D-02-0.601D-03 0.751D-03
 Coeff:     -0.307D-02-0.388D-02 0.717D-01-0.119D+00-0.519D+00 0.109D+01
 Coeff:     -0.273D+00-0.221D+01 0.297D+01
 Gap=     0.030 Goal=   None    Shift=    0.000
 RMSDP=1.05D-06 MaxDP=2.72D-05 DE=-1.05D-11 OVMax= 2.04D-05

 Cycle  20  Pass 1  IDiag  1:
 E= -468.770516830888     Delta-E=       -0.000000000007 Rises=F Damp=F
 DIIS: error= 1.42D-08 at cycle  20 NSaved=  16.
 NSaved=16 IEnMin=16 EnMin= -468.770516830888     IErMin=16 ErrMin= 1.42D-08
 ErrMax= 1.42D-08  0.00D+00 EMaxC= 1.00D-01 BMatC= 1.93D-14 BMatP= 2.90D-14
 IDIUse=1 WtCom= 1.00D+00 WtEn= 0.00D+00
 Large coefficients: NSaved= 16 BigCof=    0.00 CofMax=   10.00 Det=-2.35D-16
 Inversion failed.  Reducing to 15 matrices.
 Coeff-Com:  0.828D-04-0.494D-03-0.240D-03-0.973D-03-0.650D-04 0.651D-02
 Coeff-Com: -0.641D-02-0.440D-01 0.169D+00-0.876D-01-0.520D+00 0.931D+00
 Coeff-Com: -0.312D+00-0.132D+01 0.218D+01
 Coeff:      0.828D-04-0.494D-03-0.240D-03-0.973D-03-0.650D-04 0.651D-02
 Coeff:     -0.641D-02-0.440D-01 0.169D+00-0.876D-01-0.520D+00 0.931D+00
 Coeff:     -0.312D+00-0.132D+01 0.218D+01
 Gap=     0.030 Goal=   None    Shift=    0.000
 RMSDP=9.94D-07 MaxDP=2.75D-05 DE=-7.39D-12 OVMax= 1.92D-05

 >>>>>>>>>> Convergence criterion not met.
 SCF Done:  E(RPBE1PBE) =  -468.770516831     A.U. after   21 cycles
            NFock= 20  Conv=0.99D-06     -V/T= 2.1612
 KE= 4.036993019534D+02 PE=-1.647924067955D+03 EE= 5.286671811876D+02
 Leave Link  502 at Sat Oct 18 12:11:51 2025, MaxMem=  4294967296 cpu:               8.8 elap:               1.1
 (Enter /opt/modules/software/gaussian/G16-C01/l508.exe)
 Keep R1 ints in memory in canonical form, NReq=8546330.
 FoFCou: FMM=F IPFlag=           0 FMFlag=           0 FMFlg1=           0
         NFxFlg=           0 DoJE=F BraDBF=F KetDBF=F FulRan=T
         wScrn=  0.000000 ICntrl=       600 IOpCl=  0 I1Cent=           0 NGrid=           0
         NMat0=    1 NMatS0=   1711 NMatT0=    0 NMatD0=    1 NMtDS0=    0 NMtDT0=    0
 Symmetry not used in FoFCou.
 Two-electron integral symmetry not used.
 Tight linear equation convergence will be used.
 RPBE1PBE wavefunction.
 Quadratic Convergence SCF Method.
 Line search only if initial step raises energy.
 Iteration   1 EE= -468.770516830891                                    Grad=1.728D-07 Max rot=    0.0000 deg.
 Rotation gradient small -- convergence achieved.
 SCF Done:  E(RPBE1PBE) =  -468.770516831     a.u. after    1 cycles
            Convg  =    0.1728D-06                     1 Fock formations.
              S**2 =  0.0000                  -V/T =  2.1612
 Leave Link  508 at Sat Oct 18 12:11:51 2025, MaxMem=  4294967296 cpu:               1.3 elap:               0.2
 (Enter /opt/modules/software/gaussian/G16-C01/l701.exe)
 ... and contract with generalized density number  0.
 Compute integral first derivatives.
   1 Symmetry operations used in ECPInt.
 ECPInt:  NShTT=     406 NPrTT=    3130 LenC2=     407 LenP2D=    2344.
 LDataN:  DoStor=T MaxTD1= 5 Len=  102
 Leave Link  701 at Sat Oct 18 12:11:51 2025, MaxMem=  4294967296 cpu:               0.7 elap:               0.1
 (Enter /opt/modules/software/gaussian/G16-C01/l702.exe)
 L702 exits ... SP integral derivatives will be done elsewhere.
 Leave Link  702 at Sat Oct 18 12:11:51 2025, MaxMem=  4294967296 cpu:               0.1 elap:               0.0
 (Enter /opt/modules/software/gaussian/G16-C01/l703.exe)
 Integral derivatives from FoFJK, PRISM(SPDF).
 Compute integral first derivatives, UseDBF=F ICtDFT=           0.
 Calling FoFJK, ICntrl=      2127 FMM=F ISym2X=0 I1Cent= 0 IOpClX= 0 NMat=1 NMatS=1 NMatT=0.
 FoFJK:  IHMeth= 1 ICntrl=    2127 DoSepK=F KAlg= 0 I1Cent=           0 FoldK=F
 IRaf=         0 NMat=       1 IRICut=       1 DoRegI=T DoRafI=F ISym2E= 0 IDoP0=0 IntGTp=1.
 FoFCou: FMM=F IPFlag=           0 FMFlag=      100000 FMFlg1=         800
         NFxFlg=           0 DoJE=F BraDBF=F KetDBF=F FulRan=T
         wScrn=  0.000000 ICntrl=      2127 IOpCl=  0 I1Cent=           0 NGrid=           0
         NMat0=    1 NMatS0=      1 NMatT0=    0 NMatD0=    1 NMtDS0=    0 NMtDT0=    0
 Symmetry not used in FoFCou.
 Leave Link  703 at Sat Oct 18 12:11:51 2025, MaxMem=  4294967296 cpu:               2.6 elap:               0.3
 (Enter /opt/modules/software/gaussian/G16-C01/l716.exe)
 Dipole        =-4.33503614D-03 7.25129608D-04 3.45435038D-01
 ***** Axes restored to original set *****
 -------------------------------------------------------------------
 Center     Atomic                   Forces (Hartrees/Bohr)
 Number     Number              X              Y              Z
 -------------------------------------------------------------------
      1       28           0.000020299   -0.000287359   -0.000181023
      2        8          -0.000155190    0.000055193    0.000026747
      3        8          -0.000005778    0.000115375    0.000004195
      4        8          -0.000014494    0.000051831    0.000112156
      5        8           0.000155164    0.000064959    0.000037926
 -------------------------------------------------------------------
 Cartesian Forces:  Max     0.000287359 RMS     0.000116096
 Leave Link  716 at Sat Oct 18 12:11:51 2025, MaxMem=  4294967296 cpu:               0.1 elap:               0.0
 (Enter /opt/modules/software/gaussian/G16-C01/l103.exe)

 GradGradGradGradGradGradGradGradGradGradGradGradGradGradGradGradGradGrad
 Berny optimization.
 Using GEDIIS/GDIIS optimizer.
 FormGI is forming the generalized inverse of G from B-inverse, IUseBI=4.
 Internal  Forces:  Max     0.000171281 RMS     0.000082661
 Search for a local minimum.
 Step number   6 out of a maximum of  100
 All quantities printed in internal units (Hartrees-Bohrs-Radians)
 RMS Force = .82661D-04 SwitMx=.10000D-02 MixMth= 2
 Mixed Optimization -- En-DIIS/RFO-DIIS
 Swapping is turned off.
 Update second derivatives using D2CorX and points    2    3    4    5    6
 DE= -9.69D-06 DEPred=-8.95D-06 R= 1.08D+00
 TightC=F SS=  1.41D+00  RLast= 1.52D-02 DXNew= 8.4853D-01 4.5705D-02
 Trust test= 1.08D+00 RLast= 1.52D-02 DXMaxT set to 5.05D-01
 The second derivative matrix:
                          R1        R2        R3        R4        A1
           R1           0.14626
           R2          -0.01334   0.15767
           R3          -0.01382   0.00616   0.15946
           R4          -0.00567  -0.01441  -0.01497   0.14723
           A1          -0.00191  -0.00045  -0.00037  -0.00199   0.24928
           A2          -0.00174   0.00156   0.00170  -0.00188  -0.00071
           A3          -0.00174  -0.00206  -0.00291  -0.00121   0.01017
           A4           0.00811   0.00108   0.00186   0.00770  -0.00934
           A5          -0.00252   0.00119   0.00121  -0.00258   0.00023
           A6           0.00094  -0.00156  -0.00165   0.00107  -0.00092
           D1           0.00768  -0.00947  -0.00977   0.00818  -0.00277
           D2           0.00688  -0.00766  -0.00802   0.00739  -0.00167
           D3          -0.00320   0.00402   0.00425  -0.00349   0.00049
           D4          -0.01008   0.01168   0.01226  -0.01088   0.00216
                          A2        A3        A4        A5        A6
           A2           0.24971
           A3           0.01629   0.12899
           A4          -0.01772   0.09129   0.19684
           A5           0.00129   0.00536  -0.00966   0.25170
           A6          -0.00123   0.01381  -0.01283   0.00022   0.24895
           D1          -0.00678   0.01215   0.00452  -0.00517  -0.00276
           D2          -0.00437   0.00640   0.00397  -0.00331  -0.00146
           D3           0.00153  -0.00087  -0.00274   0.00120   0.00030
           D4           0.00590  -0.00727  -0.00671   0.00451   0.00176
                          D1        D2        D3        D4
           D1           0.03636
           D2           0.00813   0.03081
           D3          -0.00352  -0.00253   0.02603
           D4          -0.01165  -0.00839   0.00362   0.03696
 ITU=  1  1  1  0  1  0
     Eigenvalues ---    0.05710   0.08809   0.12231   0.12788   0.15237
     Eigenvalues ---    0.15237   0.18771   0.23380   0.25051
 En-DIIS/RFO-DIIS/Sim-DIIS IScMMF=       -3 using points:     6    5    4
 RFO step:  Lambda=-5.95455657D-07.
 NNeg= 0 NGDIIS= 3 SimSw=  2.50D-01 Rises=F DC= -9.69D-06 SmlDif=  1.00D-05
 NRisDI= 0 DoIntr=F SqrtH=F CThrHd= 10.0 CDAdj=  3.0
 RMS Error=  0.5637728201D-03 NUsed= 3 OKEnD=F EnDIS=F
 InvSVX:  RCond= 2.22D-06 Info=           0 Equed=N FErr=  1.17D-14 BErr=  5.53D-17
 DidBck=F Rises=F RFO-DIIS coefs:    1.21921   -0.27974    0.06054
 Iteration  1 RMS(Cart)=  0.00047368 RMS(Int)=  0.00000259
 Iteration  2 RMS(Cart)=  0.00000012 RMS(Int)=  0.00000259
 ITry= 1 IFail=0 DXMaxC= 1.01D-03 DCOld= 1.00D+10 DXMaxT= 5.05D-01 DXLimC= 3.00D+00 Rises=F
 Variable       Old X    -DE/DX   Delta X   Delta X   Delta X     New X
                                 (Linear)    (Quad)   (Total)
    R1        3.29093   0.00016   0.00034   0.00087   0.00121   3.29214
    R2        3.28464  -0.00011  -0.00078   0.00025  -0.00053   3.28411
    R3        3.28461  -0.00011  -0.00081   0.00026  -0.00055   3.28406
    R4        3.29048   0.00017   0.00038   0.00087   0.00125   3.29173
    A1        1.88743  -0.00002   0.00003  -0.00016  -0.00012   1.88731
    A2        1.88492  -0.00004   0.00004  -0.00032  -0.00027   1.88464
    A3        2.02431   0.00006  -0.00049   0.00039  -0.00009   2.02421
    A4        1.88774   0.00007   0.00036   0.00035   0.00072   1.88846
    A5        1.88625  -0.00003   0.00004  -0.00009  -0.00004   1.88621
    A6        1.88935  -0.00003   0.00005  -0.00016  -0.00011   1.88924
    D1       -2.03881   0.00001  -0.00026   0.00017  -0.00009  -2.03890
    D2        2.12167  -0.00001  -0.00025  -0.00001  -0.00026   2.12141
    D3       -2.12078   0.00003   0.00024   0.00027   0.00051  -2.12027
    D4        2.04074   0.00004   0.00049   0.00028   0.00077   2.04151
         Item               Value     Threshold  Converged?
 Maximum Force            0.000171     0.000450     YES
 RMS     Force            0.000083     0.000300     YES
 Maximum Displacement     0.001010     0.001800     YES
 RMS     Displacement     0.000474     0.001200     YES
 Predicted change in Energy=-2.951033D-07
 Optimization completed.
    -- Stationary point found.
                           ----------------------------
                           !   Optimized Parameters   !
                           ! (Angstroms and Degrees)  !
 --------------------------                            --------------------------
 ! Name  Definition              Value          Derivative Info.                !
 --------------------------------------------------------------------------------
 ! R1    R(1,2)                  1.7415         -DE/DX =    0.0002              !
 ! R2    R(1,3)                  1.7382         -DE/DX =   -0.0001              !
 ! R3    R(1,4)                  1.7381         -DE/DX =   -0.0001              !
 ! R4    R(1,5)                  1.7412         -DE/DX =    0.0002              !
 ! A1    A(2,1,3)              108.1419         -DE/DX =    0.0                 !
 ! A2    A(2,1,4)              107.9978         -DE/DX =    0.0                 !
 ! A3    A(2,1,5)              115.9843         -DE/DX =    0.0001              !
 ! A4    A(3,1,4)              108.1598         -DE/DX =    0.0001              !
 ! A5    A(3,1,5)              108.0743         -DE/DX =    0.0                 !
 ! A6    A(4,1,5)              108.2517         -DE/DX =    0.0                 !
 ! D1    D(2,1,4,3)           -116.8153         -DE/DX =    0.0                 !
 ! D2    D(2,1,5,3)            121.5625         -DE/DX =    0.0                 !
 ! D3    D(2,1,5,4)           -121.5115         -DE/DX =    0.0                 !
 ! D4    D(3,1,5,4)            116.926          -DE/DX =    0.0                 !
 --------------------------------------------------------------------------------
 Lowest energy point so far.  Saving SCF results.
 Largest change from initial coordinates is atom    5       2.176 Angstoms.
 GradGradGradGradGradGradGradGradGradGradGradGradGradGradGradGradGradGrad

 Leave Link  103 at Sat Oct 18 12:11:51 2025, MaxMem=  4294967296 cpu:               0.0 elap:               0.0
 (Enter /opt/modules/software/gaussian/G16-C01/l202.exe)
                          Input orientation:                          
 ---------------------------------------------------------------------
 Center     Atomic      Atomic             Coordinates (Angstroms)
 Number     Number       Type             X           Y           Z
 ---------------------------------------------------------------------
      1         28           0        1.499729   -0.833832    3.082198
      2          8           0        0.022624   -0.079979    3.613839
      3          8           0        1.499948   -2.479077    3.642877
      4          8           0        1.497156   -0.853814    1.344172
      5          8           0        2.975893   -0.080743    3.616735
 ---------------------------------------------------------------------
                    Distance matrix (angstroms):
                    1          2          3          4          5
     1  Ni   0.000000
     2  O    1.741486   0.000000
     3  O    1.738158   2.817623   0.000000
     4  O    1.738143   2.815041   2.815232   0.000000
     5  O    1.741245   2.953270   2.816221   2.819370   0.000000
 Stoichiometry    NiO4(4-)
 Framework group  C1[X(NiO4)]
 Deg. of freedom     9
 Full point group                 C1      NOp   1
 RotChk:  IX=1 Diff= 4.20D-15
 Largest Abelian subgroup         C1      NOp   1
 Largest concise Abelian subgroup C1      NOp   1
                         Standard orientation:                         
 ---------------------------------------------------------------------
 Center     Atomic      Atomic             Coordinates (Angstroms)
 Number     Number       Type             X           Y           Z
 ---------------------------------------------------------------------
      1         28           0       -0.000570   -0.000023    0.025787
      2          8           0        1.471477    0.031225    0.955773
      3          8           0       -0.024066    1.404657   -0.997694
      4          8           0        0.035793   -1.409929   -0.990079
      5          8           0       -1.481208   -0.025872    0.941745
 ---------------------------------------------------------------------
 Rotational constants (GHZ):           4.0816474           3.8818261           3.7959414
 Leave Link  202 at Sat Oct 18 12:11:51 2025, MaxMem=  4294967296 cpu:               0.0 elap:               0.0
 (Enter /opt/modules/software/gaussian/G16-C01/l601.exe)
 Copying SCF densities to generalized density rwf, IOpCl= 0 IROHF=0.

 **********************************************************************

            Population analysis using the SCF Density.

 **********************************************************************

 Orbital symmetries:
       Occupied  (A) (A) (A) (A) (A) (A) (A) (A) (A) (A) (A) (A)
                 (A) (A) (A) (A) (A) (A) (A) (A) (A) (A) (A) (A)
                 (A) (A) (A)
       Virtual   (A) (A) (A) (A) (A) (A) (A) (A) (A) (A) (A) (A)
                 (A) (A) (A) (A) (A) (A) (A) (A) (A) (A) (A) (A)
                 (A) (A) (A) (A) (A) (A) (A)
 The electronic state is 1-A.
 Alpha  occ. eigenvalues --  -18.52569 -18.52568 -18.52495 -18.52490  -3.53274
 Alpha  occ. eigenvalues --   -2.12146  -2.11867  -2.11477  -0.23051  -0.21199
 Alpha  occ. eigenvalues --   -0.21148  -0.21135   0.22815   0.23313   0.25052
 Alpha  occ. eigenvalues --    0.25836   0.26124   0.32388   0.36228   0.36345
 Alpha  occ. eigenvalues --    0.36398   0.41571   0.41675   0.41810   0.42021
 Alpha  occ. eigenvalues --    0.42091   0.44913
 Alpha virt. eigenvalues --    0.47935   0.47992   0.53915   0.55181   0.55476
 Alpha virt. eigenvalues --    0.66363   0.87781   0.87994   0.90212   1.12858
 Alpha virt. eigenvalues --    1.26665   1.27065   1.28061   1.30418   1.31043
 Alpha virt. eigenvalues --    1.45212   1.46523   1.46893   1.50026   1.51027
 Alpha virt. eigenvalues --    1.51594   1.56727   1.57481   1.77468   1.79502
 Alpha virt. eigenvalues --    1.80222   1.96708   2.16654   2.17579   2.20256
 Alpha virt. eigenvalues --    7.39369
          Condensed to atoms (all electrons):
               1          2          3          4          5
     1  Ni  18.220554   0.225242   0.216037   0.216060   0.225701
     2  O    0.225242   8.442723   0.010469   0.010558   0.005941
     3  O    0.216037   0.010469   8.507225   0.010027   0.010492
     4  O    0.216060   0.010558   0.010027   8.507250   0.010388
     5  O    0.225701   0.005941   0.010492   0.010388   8.440420
 Mulliken charges:
               1
     1  Ni  -1.103593
     2  O   -0.694932
     3  O   -0.754249
     4  O   -0.754284
     5  O   -0.692942
 Sum of Mulliken charges =  -4.00000
 Mulliken charges with hydrogens summed into heavy atoms:
               1
     1  Ni  -1.103593
     2  O   -0.694932
     3  O   -0.754249
     4  O   -0.754284
     5  O   -0.692942
 Electronic spatial extent (au):  <R**2>=            585.9566
 Charge=             -4.0000 electrons
 Dipole moment (field-independent basis, Debye):
    X=             -0.0110    Y=              0.0018    Z=              0.8780  Tot=              0.8781
 Quadrupole moment (field-independent basis, Debye-Ang):
   XX=           -149.0398   YY=            -87.6544   ZZ=            -86.4403
   XY=             -0.6315   XZ=              0.3271   YZ=              0.0051
 Traceless Quadrupole moment (field-independent basis, Debye-Ang):
   XX=            -41.3283   YY=             20.0571   ZZ=             21.2712
   XY=             -0.6315   XZ=              0.3271   YZ=              0.0051
 Octapole moment (field-independent basis, Debye-Ang**2):
  XXX=              0.3507  YYY=              0.1168  ZZZ=              2.0844  XYY=             -0.0442
  XXY=             -0.0246  XXZ=            -13.5678  XZZ=             -0.0990  YZZ=             -0.0688
  YYZ=             13.7057  XYZ=             -0.5395
 Hexadecapole moment (field-independent basis, Debye-Ang**3):
 XXXX=          -1812.7215 YYYY=           -558.9460 ZZZZ=           -540.1287 XXXY=             -6.9988
 XXXZ=              3.4066 YYYX=             -6.1977 YYYZ=              0.0019 ZZZX=              3.3328
 ZZZY=              0.0995 XXYY=           -388.6121 XXZZ=           -395.3035 YYZZ=           -189.4019
 XXYZ=             -0.0135 YYXZ=              1.2057 ZZXY=             -2.1401
 N-N= 2.467870679827D+02 E-N=-1.647924068079D+03  KE= 4.036993019534D+02
 No NMR shielding tensors so no spin-rotation constants.
 Leave Link  601 at Sat Oct 18 12:11:51 2025, MaxMem=  4294967296 cpu:               0.4 elap:               0.1
 (Enter /opt/modules/software/gaussian/G16-C01/l9999.exe)
 Unable to Open any file for archive entry.
 1\1\GINC-PRCC02008\FOpt\RPBE1PBE\GenECP\Ni1O4(4-)\FUTERA\18-Oct-2025\0
 \\#p PBE1PBE/GenECP SCF(Tight,XQC,MaxCycle=500,MaxConventional=20) Opt
 (MaxCycle=500)\\Nickel ferrate (PBE0/LANL2DZ)\\-4,1\Ni,1.4997289585,-0
 .8338318921,3.0821980889\O,0.0226241575,-0.0799790704,3.613839235\O,1.
 4999482958,-2.4790767338,3.6428771251\O,1.4971562166,-0.8538142782,1.3
 441716368\O,2.9758930382,-0.0807430254,3.6167352476\\Version=ES64L-G16
 RevC.01\State=1-A\HF=-468.7705168\RMSD=4.223e-09\RMSF=1.161e-04\Dipole
 =0.0025568,0.2821405,0.1993362\Quadrupole=-30.7231526,15.5169682,15.20
 61844,-0.1307412,-0.6498759,0.4216244\PG=C01 [X(Ni1O4)]\\@
 The archive entry for this job was punched.


 PICNIC:  A SNACK IN THE GRASS.
 Job cpu time:       0 days  0 hours  2 minutes 35.5 seconds.
 Elapsed time:       0 days  0 hours  0 minutes 19.8 seconds.
 File lengths (MBytes):  RWF=      6 Int=      0 D2E=      0 Chk=      1 Scr=      1
 Normal termination of Gaussian 16 at Sat Oct 18 12:11:51 2025.
