5
nio4-opt.log (E=-467.655253971, step=134)
Ni     1.490677    -0.896908     3.075780
 O     0.075794    -0.068941     3.648511
 O     1.472410    -2.489270     3.650836
 O     1.550918    -0.827036     1.355662
 O     2.905552    -0.045290     3.569033
