5
nio4-q2-opt.log (E=-469.477183838, step=4)
Ni     1.499070    -0.865489     3.059964
 O     0.102972    -0.059469     3.629906
 O     1.499070    -2.477546     3.629933
 O     1.499069    -0.865472     1.350113
 O     2.895169    -0.059470     3.629905
