 Entering Gaussian System, Link 0=g16
 Input=nio4-q0-scan.com
 Output=nio4-q0-scan.log
 Initial command:
 /opt/modules/software/gaussian/G16-C01/l1.exe "/home/futera/Documents/2025-nife2o4-params/bond-parameters/pbe0-lanl2dz/Gau-3729692.inp" -scrdir="/home/futera/Documents/2025-nife2o4-params/bond-parameters/pbe0-lanl2dz/"
 Entering Link 1 = /opt/modules/software/gaussian/G16-C01/l1.exe PID=   3729693.
  
 Copyright (c) 1988-2019, Gaussian, Inc.  All Rights Reserved.
  
 This is part of the Gaussian(R) 16 program.  It is based on
 the Gaussian(R) 09 system (copyright 2009, Gaussian, Inc.),
 the Gaussian(R) 03 system (copyright 2003, Gaussian, Inc.),
 the Gaussian(R) 98 system (copyright 1998, Gaussian, Inc.),
 the Gaussian(R) 94 system (copyright 1995, Gaussian, Inc.),
 the Gaussian 92(TM) system (copyright 1992, Gaussian, Inc.),
 the Gaussian 90(TM) system (copyright 1990, Gaussian, Inc.),
 the Gaussian 88(TM) system (copyright 1988, Gaussian, Inc.),
 the Gaussian 86(TM) system (copyright 1986, Carnegie Mellon
 University), and the Gaussian 82(TM) system (copyright 1983,
 Carnegie Mellon University). Gaussian is a federally registered
 trademark of Gaussian, Inc.
  
 This software contains proprietary and confidential information,
 including trade secrets, belonging to Gaussian, Inc.
  
 This software is provided under written license and may be
 used, copied, transmitted, or stored only in accord with that
 written license.
  
 The following legend is applicable only to US Government
 contracts under FAR:
  
                    RESTRICTED RIGHTS LEGEND
  
 Use, reproduction and disclosure by the US Government is
 subject to restrictions as set forth in subparagraphs (a)
 and (c) of the Commercial Computer Software - Restricted
 Rights clause in FAR 52.227-19.
  
 Gaussian, Inc.
 340 Quinnipiac St., Bldg. 40, Wallingford CT 06492
  
  
 ---------------------------------------------------------------
 Warning -- This program may not be used in any manner that
 competes with the business of Gaussian, Inc. or will provide
 assistance to any competitor of Gaussian, Inc.  The licensee
 of this program is prohibited from giving any competitor of
 Gaussian, Inc. access to this program.  By using this program,
 the user acknowledges that Gaussian, Inc. is engaged in the
 business of creating and licensing software in the field of
 computational chemistry and represents and warrants to the
 licensee that it is not a competitor of Gaussian, Inc. and that
 it will not use this program in any manner prohibited above.
 ---------------------------------------------------------------
  

 Cite this work as:
 Gaussian 16, Revision C.01,
 M. J. Frisch, G. W. Trucks, H. B. Schlegel, G. E. Scuseria, 
 M. A. Robb, J. R. Cheeseman, G. Scalmani, V. Barone, 
 G. A. Petersson, H. Nakatsuji, X. Li, M. Caricato, A. V. Marenich, 
 J. Bloino, B. G. Janesko, R. Gomperts, B. Mennucci, H. P. Hratchian, 
 J. V. Ortiz, A. F. Izmaylov, J. L. Sonnenberg, D. Williams-Young, 
 F. Ding, F. Lipparini, F. Egidi, J. Goings, B. Peng, A. Petrone, 
 T. Henderson, D. Ranasinghe, V. G. Zakrzewski, J. Gao, N. Rega, 
 G. Zheng, W. Liang, M. Hada, M. Ehara, K. Toyota, R. Fukuda, 
 J. Hasegawa, M. Ishida, T. Nakajima, Y. Honda, O. Kitao, H. Nakai, 
 T. Vreven, K. Throssell, J. A. Montgomery, Jr., J. E. Peralta, 
 F. Ogliaro, M. J. Bearpark, J. J. Heyd, E. N. Brothers, K. N. Kudin, 
 V. N. Staroverov, T. A. Keith, R. Kobayashi, J. Normand, 
 K. Raghavachari, A. P. Rendell, J. C. Burant, S. S. Iyengar, 
 J. Tomasi, M. Cossi, J. M. Millam, M. Klene, C. Adamo, R. Cammi, 
 J. W. Ochterski, R. L. Martin, K. Morokuma, O. Farkas, 
 J. B. Foresman, and D. J. Fox, Gaussian, Inc., Wallingford CT, 2019.
 
 ******************************************
 Gaussian 16:  ES64L-G16RevC.01  3-Jul-2019
                18-Oct-2025 
 ******************************************
 %mem=32GB
 %nproc=8
 Will use up to    8 processors via shared memory.
 ---------------------------------------------------------------------
 #p PBE1PBE/GenECP SCF(Tight,XQC,MaxCycle=500,MaxConventional=20) Scan
 ---------------------------------------------------------------------
 1/38=1,60=1,172=1/1,8;
 2/12=2,17=6,18=5,29=3,40=1/2;
 3/5=7,11=2,16=1,17=8,25=1,30=1,74=-13/1,2,3;
 4//1;
 5/5=2,7=500,8=3,13=1,32=2,38=5,85=20/2,8;
 6/7=2,8=2,9=2,10=2,18=1,28=1/1;
 1/60=1/8(1);
 99/9=1/99;
 2/29=3/2;
 3/5=7,6=1,11=2,16=1,17=8,25=1,30=1,74=-13,82=7/1,2,3;
 4/5=5,16=3,69=1/1;
 5/5=2,7=500,8=3,13=1,32=2,38=5,85=20/2,8;
 1/60=1/8(-4);
 99/9=1/99;
 Leave Link    1 at Sat Oct 18 14:05:22 2025, MaxMem=  4294967296 cpu:               0.1 elap:               0.0
 (Enter /opt/modules/software/gaussian/G16-C01/l101.exe)
 -----------------------------
 Nickel ferrate (PBE0/LANL2DZ)
 -----------------------------
 Symbolic Z-matrix:
 Charge =  0 Multiplicity = 1
 ni
 o                    1    r
 o                    1    r        2     109.471 
 o                    1    r        3     109.471  2    -120.     0
 o                    1    r        4     109.471  3     120.     0
       Variables:
  r                     1.     Scan 180   0.05   
 
     3 tetrahedral angles replaced.
 ITRead=  0  0  0  0  0
 MicOpt= -1 -1 -1 -1 -1
 NAtoms=      5 NQM=        5 NQMF=       0 NMMI=      0 NMMIF=      0
                NMic=       0 NMicF=      0.
    3 tetrahedral angles replaced.
                    Isotopes and Nuclear Properties:
 (Nuclear quadrupole moments (NQMom) in fm**2, nuclear magnetic moments (NMagM)
  in nuclear magnetons)

  Atom         1           2           3           4           5
 IAtWgt=          58          16          16          16          16
 AtmWgt=  57.9353471  15.9949146  15.9949146  15.9949146  15.9949146
 NucSpn=           0           0           0           0           0
 AtZEff=  -0.0000000  -0.0000000  -0.0000000  -0.0000000  -0.0000000
 NQMom=    0.0000000   0.0000000   0.0000000   0.0000000   0.0000000
 NMagM=    0.0000000   0.0000000   0.0000000   0.0000000   0.0000000
 AtZNuc=  28.0000000   8.0000000   8.0000000   8.0000000   8.0000000
 Leave Link  101 at Sat Oct 18 14:05:22 2025, MaxMem=  4294967296 cpu:               0.7 elap:               0.1
 (Enter /opt/modules/software/gaussian/G16-C01/l108.exe)
 Scan the potential surface.
 Variable   Value     No. Steps Step-Size
 -------- ----------- --------- ---------
     1       1.000000     180      0.0500
 A total of    181 points will be computed.
 Leave Link  108 at Sat Oct 18 14:05:22 2025, MaxMem=  4294967296 cpu:               0.0 elap:               0.0
 (Enter /opt/modules/software/gaussian/G16-C01/l202.exe)
 ---------------------------------------------------------------------------------------------------
                            Z-MATRIX (ANGSTROMS AND DEGREES)
   CD    Cent   Atom    N1       Length/X        N2       Alpha/Y        N3        Beta/Z          J
 ---------------------------------------------------------------------------------------------------
      1      1  Ni
      2      2  O        1   1.000000(     1)
      3      3  O        1   1.000000(     2)      2  109.471(     5)
      4      4  O        1   1.000000(     3)      3  109.471(     6)      2 -120.000(     8)      0
      5      5  O        1   1.000000(     4)      4  109.471(     7)      3  120.000(     9)      0
 ---------------------------------------------------------------------------------------------------
                         Z-Matrix orientation:                         
 ---------------------------------------------------------------------
 Center     Atomic      Atomic             Coordinates (Angstroms)
 Number     Number       Type             X           Y           Z
 ---------------------------------------------------------------------
      1         28           0        0.000000    0.000000    0.000000
      2          8           0        0.000000    0.000000    1.000000
      3          8           0        0.942809    0.000000   -0.333333
      4          8           0       -0.471405   -0.816497   -0.333333
      5          8           0       -0.471405    0.816497   -0.333333
 ---------------------------------------------------------------------
                    Distance matrix (angstroms):
                    1          2          3          4          5
     1  Ni   0.000000
     2  O    1.000000   0.000000
     3  O    1.000000   1.632993   0.000000
     4  O    1.000000   1.632993   1.632993   0.000000
     5  O    1.000000   1.632993   1.632993   1.632993   0.000000
 Stoichiometry    NiO4
 Framework group  TD[O(Ni),4C3(O)]
 Deg. of freedom     1
 Full point group                 TD      NOp  24
 Largest Abelian subgroup         D2      NOp   4
 Largest concise Abelian subgroup D2      NOp   4
                         Standard orientation:                         
 ---------------------------------------------------------------------
 Center     Atomic      Atomic             Coordinates (Angstroms)
 Number     Number       Type             X           Y           Z
 ---------------------------------------------------------------------
      1         28           0        0.000000    0.000000    0.000000
      2          8           0        0.577350    0.577350    0.577350
      3          8           0       -0.577350   -0.577350    0.577350
      4          8           0       -0.577350    0.577350   -0.577350
      5          8           0        0.577350   -0.577350   -0.577350
 ---------------------------------------------------------------------
 Rotational constants (GHZ):          11.8485864          11.8485864          11.8485864
 Leave Link  202 at Sat Oct 18 14:05:22 2025, MaxMem=  4294967296 cpu:               0.0 elap:               0.0
 (Enter /opt/modules/software/gaussian/G16-C01/l301.exe)
 General basis read from cards:  (5D, 7F)
 Centers:       2      3      4      5
 S 7 1.00
     Exponent=  7.8170000000D+03 Coefficients=  1.1760000000D-03
     Exponent=  1.1760000000D+03 Coefficients=  8.9680000000D-03
     Exponent=  2.7320000000D+02 Coefficients=  4.2868000000D-02
     Exponent=  8.1170000000D+01 Coefficients=  1.4393000000D-01
     Exponent=  2.7180000000D+01 Coefficients=  3.5563000000D-01
     Exponent=  9.5320000000D+00 Coefficients=  4.6124800000D-01
     Exponent=  3.4140000000D+00 Coefficients=  1.4020600000D-01
 S 2 1.00
     Exponent=  9.5320000000D+00 Coefficients= -1.5415300000D-01
     Exponent=  9.3980000000D-01 Coefficients=  1.0569140000D+00
 S 1 1.00
     Exponent=  2.8460000000D-01 Coefficients=  1.0000000000D+00
 P 4 1.00
     Exponent=  3.5180000000D+01 Coefficients=  1.9580000000D-02
     Exponent=  7.9040000000D+00 Coefficients=  1.2420000000D-01
     Exponent=  2.3050000000D+00 Coefficients=  3.9471400000D-01
     Exponent=  7.1710000000D-01 Coefficients=  6.2737600000D-01
 P 1 1.00
     Exponent=  2.1370000000D-01 Coefficients=  1.0000000000D+00
 ****
 Centers:       1
 S 3 1.00
     Exponent=  7.6200000000D+00 Coefficients= -4.0825500000D-01
     Exponent=  2.2940000000D+00 Coefficients=  7.4553080000D-01
     Exponent=  8.7600000000D-01 Coefficients=  5.3257210000D-01
 S 4 1.00
     Exponent=  7.6200000000D+00 Coefficients=  1.8725910000D-01
     Exponent=  2.2940000000D+00 Coefficients= -3.9669640000D-01
     Exponent=  8.7600000000D-01 Coefficients= -4.9540030000D-01
     Exponent=  1.1530000000D-01 Coefficients=  1.0844343000D+00
 S 1 1.00
     Exponent=  3.9600000000D-02 Coefficients=  1.0000000000D+00
 P 3 1.00
     Exponent=  2.3660000000D+01 Coefficients= -4.8155800000D-02
     Exponent=  2.8930000000D+00 Coefficients=  6.2584730000D-01
     Exponent=  9.4350000000D-01 Coefficients=  4.7151580000D-01
 P 1 1.00
     Exponent=  8.4000000000D-02 Coefficients=  1.0000000000D+00
 P 1 1.00
     Exponent=  2.4000000000D-02 Coefficients=  1.0000000000D+00
 D 4 1.00
     Exponent=  4.2720000000D+01 Coefficients=  3.7269900000D-02
     Exponent=  1.1760000000D+01 Coefficients=  1.9561030000D-01
     Exponent=  3.8170000000D+00 Coefficients=  4.5612730000D-01
     Exponent=  1.1690000000D+00 Coefficients=  5.6215870000D-01
 D 1 1.00
     Exponent=  2.8360000000D-01 Coefficients=  1.0000000000D+00
 ****
 ======================================================================================================
                                       Pseudopotential Parameters
 ======================================================================================================
  Center     Atomic      Valence      Angular      Power
  Number     Number     Electrons     Momentum     of R      Exponent        Coefficient   SO-Coeffient
 ======================================================================================================
    1         28           18
                                      D and up 
                                                     1      469.9324331      -10.00000000    0.00000000
                                                     2       85.4236411      -69.40848050    0.00000000
                                                     2       21.2674984      -12.09510200    0.00000000
                                      S - D
                                                     0      162.1686097        3.00000000    0.00000000
                                                     1      176.5333232       22.02536180    0.00000000
                                                     2       68.9562010      443.01810880    0.00000000
                                                     2       13.5792838      145.56964110    0.00000000
                                      P - D
                                                     0       69.0181506        5.00000000    0.00000000
                                                     1      275.5955596        4.98828240    0.00000000
                                                     2       47.1315453      256.69458530    0.00000000
                                                     2       12.9874075       78.47544500    0.00000000
    2          8
                                   No pseudopotential on this center.
    3          8
                                   No pseudopotential on this center.
    4          8
                                   No pseudopotential on this center.
    5          8
                                   No pseudopotential on this center.
 ======================================================================================================
 Ernie: Thresh=  0.10000D-02 Tol=  0.10000D-05 Strict=F.
 Ernie:  1 primitive shells out of 78 were deleted.
 There are    18 symmetry adapted cartesian basis functions of A   symmetry.
 There are    14 symmetry adapted cartesian basis functions of B1  symmetry.
 There are    14 symmetry adapted cartesian basis functions of B2  symmetry.
 There are    14 symmetry adapted cartesian basis functions of B3  symmetry.
 There are    16 symmetry adapted basis functions of A   symmetry.
 There are    14 symmetry adapted basis functions of B1  symmetry.
 There are    14 symmetry adapted basis functions of B2  symmetry.
 There are    14 symmetry adapted basis functions of B3  symmetry.
    58 basis functions,   152 primitive gaussians,    60 cartesian basis functions
    25 alpha electrons       25 beta electrons
       nuclear repulsion energy       429.2426319152 Hartrees.
 IExCor= 1009 DFT=T Ex+Corr=PBE1PBE ExCW=0 ScaHFX=  0.250000
 ScaDFX=  0.750000  0.750000  1.000000  1.000000 ScalE2=  1.000000  1.000000
 IRadAn=      5 IRanWt=     -1 IRanGd=            0 ICorTp=0 IEmpDi=  4
 NAtoms=    5 NActive=    5 NUniq=    2 SFac= 4.00D+00 NAtFMM=   60 NAOKFM=F Big=F
 Integral buffers will be    131072 words long.
 Raffenetti 2 integral format.
 Two-electron integral symmetry is turned on.
 Leave Link  301 at Sat Oct 18 14:05:22 2025, MaxMem=  4294967296 cpu:               0.3 elap:               0.0
 (Enter /opt/modules/software/gaussian/G16-C01/l302.exe)
 NPDir=0 NMtPBC=     1 NCelOv=     1 NCel=       1 NClECP=     1 NCelD=      1
         NCelK=      1 NCelE2=     1 NClLst=     1 CellRange=     0.0.
 One-electron integrals computed using PRISM.
 One-electron integral symmetry used in STVInt
  24 Symmetry operations used in ECPInt.
 ECPInt:  NShTT=     406 NPrTT=    3130 LenC2=     407 LenP2D=    2674.
 LDataN:  DoStor=T MaxTD1= 4 Len=   56
 NBasis=    58 RedAO= T EigKep=  1.43D-02  NBF=    16    14    14    14
 NBsUse=    58 1.00D-06 EigRej= -1.00D+00 NBFU=    16    14    14    14
 Precomputing XC quadrature grid using
 IXCGrd= 4 IRadAn=           5 IRanWt=          -1 IRanGd=           0 AccXCQ= 0.00D+00.
 Generated NRdTot=       0 NPtTot=           0 NUsed=           0 NTot=          32
 NSgBfM=    60    60    60    60    60 MxSgAt=     5 MxSgA2=     5.
 Leave Link  302 at Sat Oct 18 14:05:23 2025, MaxMem=  4294967296 cpu:               0.6 elap:               0.1
 (Enter /opt/modules/software/gaussian/G16-C01/l303.exe)
 DipDrv:  MaxL=1.
 Leave Link  303 at Sat Oct 18 14:05:23 2025, MaxMem=  4294967296 cpu:               0.1 elap:               0.0
 (Enter /opt/modules/software/gaussian/G16-C01/l401.exe)
 ExpMin= 2.40D-02 ExpMax= 7.82D+03 ExpMxC= 2.73D+02 IAcc=3 IRadAn=         5 AccDes= 0.00D+00
 Harris functional with IExCor= 1009 and IRadAn=       5 diagonalized for initial guess.
 HarFok:  IExCor= 1009 AccDes= 0.00D+00 IRadAn=         5 IDoV= 1 UseB2=F ITyADJ=14
 ICtDFT=  3500011 ScaDFX=  1.000000  1.000000  1.000000  1.000000
 FoFCou: FMM=F IPFlag=           0 FMFlag=      100000 FMFlg1=           0
         NFxFlg=           0 DoJE=T BraDBF=F KetDBF=T FulRan=T
         wScrn=  0.000000 ICntrl=       500 IOpCl=  0 I1Cent=   200000004 NGrid=           0
         NMat0=    1 NMatS0=      1 NMatT0=    0 NMatD0=    1 NMtDS0=    0 NMtDT0=    0
 Petite list used in FoFCou.
 Harris En= -465.005404547153    
 JPrj=0 DoOrth=F DoCkMO=F.
 Initial guess orbital symmetries:
       Occupied  (A1) (T2) (T2) (T2) (A1) (T2) (T2) (T2) (T2) (T2)
                 (T2) (A1) (E) (E) (T2) (T2) (T2) (T2) (T2) (T2)
                 (T1) (T1) (T1) (A1) (E)
       Virtual   (E) (A1) (T2) (T2) (T2) (T2) (T2) (T2) (T2) (T2)
                 (T2) (E) (E) (T2) (T2) (T2) (T1) (T1) (T1) (A1)
                 (T2) (T2) (T2) (T2) (T2) (T2) (A1) (E) (E) (T2)
                 (T2) (T2) (A1)
 Leave Link  401 at Sat Oct 18 14:05:23 2025, MaxMem=  4294967296 cpu:               0.6 elap:               0.1
 (Enter /opt/modules/software/gaussian/G16-C01/l502.exe)
 Keep R1 ints in memory in symmetry-blocked form, NReq=8551516.
 FoFCou: FMM=F IPFlag=           0 FMFlag=           0 FMFlg1=           0
         NFxFlg=           0 DoJE=F BraDBF=F KetDBF=F FulRan=T
         wScrn=  0.000000 ICntrl=       600 IOpCl=  0 I1Cent=           0 NGrid=           0
         NMat0=    1 NMatS0=   1711 NMatT0=    0 NMatD0=    1 NMtDS0=    0 NMtDT0=    0
 Petite list used in FoFCou.
 Closed shell SCF:
 Using DIIS extrapolation, IDIIS=  1040.
 NGot=  4294967296 LenX=  4294585980 LenY=  4294581939
 Requested convergence on RMS density matrix=1.00D-08 within  20 cycles.
 Requested convergence on MAX density matrix=1.00D-06.
 Requested convergence on             energy=1.00D-06.
 No special actions if energy rises.

 Cycle   1  Pass 1  IDiag  1:
 Density matrix breaks symmetry, PCut= 1.00D-04
 Density has only Abelian symmetry.
 E= -463.379269989794    
 DIIS: error= 1.91D-01 at cycle   1 NSaved=   1.
 NSaved= 1 IEnMin= 1 EnMin= -463.379269989794     IErMin= 1 ErrMin= 1.91D-01
 ErrMax= 1.91D-01  0.00D+00 EMaxC= 1.00D-01 BMatC= 1.54D+00 BMatP= 1.54D+00
 IDIUse=3 WtCom= 0.00D+00 WtEn= 1.00D+00
 Coeff-Com:  0.100D+01
 Coeff-En:   0.100D+01
 Coeff:      0.100D+01
 Gap=     0.001 Goal=   None    Shift=    0.000
 GapD=    0.001 DampG=0.250 DampE=0.125 DampFc=0.1250 IDamp=-1.
 Damping current iteration by 1.25D-01
 RMSDP=5.14D-02 MaxDP=6.46D-01              OVMax= 2.00D-01

 Cycle   2  Pass 1  IDiag  1:
 Density matrix breaks symmetry, PCut= 1.00D-04
 Density has only Abelian symmetry.
 E= -463.578754630315     Delta-E=       -0.199484640522 Rises=F Damp=T
 DIIS: error= 1.33D-01 at cycle   2 NSaved=   2.
 NSaved= 2 IEnMin= 2 EnMin= -463.578754630315     IErMin= 2 ErrMin= 1.33D-01
 ErrMax= 1.33D-01  0.00D+00 EMaxC= 1.00D-01 BMatC= 7.50D-01 BMatP= 1.54D+00
 IDIUse=3 WtCom= 0.00D+00 WtEn= 1.00D+00
 Coeff-Com: -0.225D+01 0.325D+01
 Coeff-En:   0.000D+00 0.100D+01
 Coeff:      0.000D+00 0.100D+01
 Gap=    -0.007 Goal=   None    Shift=    0.000
 RMSDP=2.75D-02 MaxDP=2.85D-01 DE=-1.99D-01 OVMax= 9.56D-01

 Cycle   3  Pass 1  IDiag  1:
 Density matrix breaks symmetry, PCut= 1.00D-04
 Density has only Abelian symmetry.
 E= -463.580963930577     Delta-E=       -0.002209300262 Rises=F Damp=F
 DIIS: error= 1.61D-01 at cycle   3 NSaved=   3.
 NSaved= 3 IEnMin= 3 EnMin= -463.580963930577     IErMin= 2 ErrMin= 1.33D-01
 ErrMax= 1.61D-01  0.00D+00 EMaxC= 1.00D-01 BMatC= 1.10D+00 BMatP= 7.50D-01
 IDIUse=2 WtCom= 0.00D+00 WtEn= 1.00D+00
 EnCoef did   100 forward-backward iterations
 Coeff-En:   0.428D+00 0.145D-01 0.558D+00
 Coeff:      0.428D+00 0.145D-01 0.558D+00
 Gap=     0.131 Goal=   None    Shift=    0.000
 RMSDP=1.70D-02 MaxDP=2.02D-01 DE=-2.21D-03 OVMax= 1.77D-01

 Cycle   4  Pass 1  IDiag  1:
 Density matrix breaks symmetry, PCut= 1.00D-04
 Density has only Abelian symmetry.
 E= -464.206701258888     Delta-E=       -0.625737328311 Rises=F Damp=F
 DIIS: error= 2.46D-02 at cycle   4 NSaved=   4.
 NSaved= 4 IEnMin= 4 EnMin= -464.206701258888     IErMin= 4 ErrMin= 2.46D-02
 ErrMax= 2.46D-02  0.00D+00 EMaxC= 1.00D-01 BMatC= 2.18D-02 BMatP= 7.50D-01
 IDIUse=3 WtCom= 7.54D-01 WtEn= 2.46D-01
 Coeff-Com: -0.939D+00 0.128D+01 0.907D-02 0.655D+00
 Coeff-En:   0.000D+00 0.000D+00 0.000D+00 0.100D+01
 Coeff:     -0.708D+00 0.961D+00 0.684D-02 0.740D+00
 Gap=     0.079 Goal=   None    Shift=    0.000
 RMSDP=3.13D-03 MaxDP=3.15D-02 DE=-6.26D-01 OVMax= 2.82D-02

 Cycle   5  Pass 1  IDiag  1:
 Density matrix breaks symmetry, PCut= 1.00D-04
 Density has only Abelian symmetry.
 E= -464.217866816459     Delta-E=       -0.011165557571 Rises=F Damp=F
 DIIS: error= 8.12D-03 at cycle   5 NSaved=   5.
 NSaved= 5 IEnMin= 5 EnMin= -464.217866816459     IErMin= 5 ErrMin= 8.12D-03
 ErrMax= 8.12D-03  0.00D+00 EMaxC= 1.00D-01 BMatC= 2.63D-03 BMatP= 2.18D-02
 IDIUse=3 WtCom= 9.19D-01 WtEn= 8.12D-02
 Coeff-Com:  0.322D-01-0.483D-01-0.118D-01 0.210D+00 0.818D+00
 Coeff-En:   0.000D+00 0.000D+00 0.000D+00 0.609D-01 0.939D+00
 Coeff:      0.296D-01-0.444D-01-0.109D-01 0.198D+00 0.828D+00
 Gap=     0.090 Goal=   None    Shift=    0.000
 RMSDP=8.06D-04 MaxDP=1.01D-02 DE=-1.12D-02 OVMax= 1.18D-02

 Cycle   6  Pass 1  IDiag  1:
 Density matrix breaks symmetry, PCut= 1.00D-04
 Density has only Abelian symmetry.
 E= -464.219311736588     Delta-E=       -0.001444920129 Rises=F Damp=F
 DIIS: error= 3.85D-04 at cycle   6 NSaved=   6.
 NSaved= 6 IEnMin= 6 EnMin= -464.219311736588     IErMin= 6 ErrMin= 3.85D-04
 ErrMax= 3.85D-04  0.00D+00 EMaxC= 1.00D-01 BMatC= 7.43D-06 BMatP= 2.63D-03
 IDIUse=3 WtCom= 9.96D-01 WtEn= 3.85D-03
 Coeff-Com: -0.706D-02 0.723D-02-0.155D-02 0.208D-01 0.795D-01 0.901D+00
 Coeff-En:   0.000D+00 0.000D+00 0.000D+00 0.000D+00 0.000D+00 0.100D+01
 Coeff:     -0.704D-02 0.720D-02-0.154D-02 0.207D-01 0.792D-01 0.901D+00
 Gap=     0.090 Goal=   None    Shift=    0.000
 RMSDP=2.51D-04 MaxDP=2.78D-03 DE=-1.44D-03 OVMax= 5.81D-03

 Cycle   7  Pass 1  IDiag  1:
 Density matrix breaks symmetry, PCut= 1.00D-04
 Density has only Abelian symmetry.
 E= -464.219346148838     Delta-E=       -0.000034412250 Rises=F Damp=F
 DIIS: error= 1.57D-04 at cycle   7 NSaved=   7.
 NSaved= 7 IEnMin= 7 EnMin= -464.219346148838     IErMin= 7 ErrMin= 1.57D-04
 ErrMax= 1.57D-04  0.00D+00 EMaxC= 1.00D-01 BMatC= 9.46D-07 BMatP= 7.43D-06
 IDIUse=3 WtCom= 9.98D-01 WtEn= 1.57D-03
 Coeff-Com:  0.790D-03-0.398D-03 0.383D-03-0.257D-01-0.847D-01-0.500D+00
 Coeff-Com:  0.161D+01
 Coeff-En:   0.000D+00 0.000D+00 0.000D+00 0.000D+00 0.000D+00 0.000D+00
 Coeff-En:   0.100D+01
 Coeff:      0.788D-03-0.397D-03 0.383D-03-0.257D-01-0.846D-01-0.499D+00
 Coeff:      0.161D+01
 Gap=     0.090 Goal=   None    Shift=    0.000
 RMSDP=3.30D-04 MaxDP=3.66D-03 DE=-3.44D-05 OVMax= 1.01D-02

 Cycle   8  Pass 1  IDiag  1:
 Density matrix breaks symmetry, PCut= 1.00D-04
 Density has only Abelian symmetry.
 E= -464.219376022119     Delta-E=       -0.000029873281 Rises=F Damp=F
 DIIS: error= 1.50D-04 at cycle   8 NSaved=   8.
 NSaved= 8 IEnMin= 8 EnMin= -464.219376022119     IErMin= 8 ErrMin= 1.50D-04
 ErrMax= 1.50D-04  0.00D+00 EMaxC= 1.00D-01 BMatC= 4.13D-07 BMatP= 9.46D-07
 IDIUse=3 WtCom= 9.99D-01 WtEn= 1.50D-03
 Coeff-Com: -0.618D-03 0.658D-03-0.185D-03 0.632D-02 0.183D-01 0.547D-01
 Coeff-Com: -0.421D+00 0.134D+01
 Coeff-En:   0.000D+00 0.000D+00 0.000D+00 0.000D+00 0.000D+00 0.000D+00
 Coeff-En:   0.000D+00 0.100D+01
 Coeff:     -0.617D-03 0.657D-03-0.185D-03 0.632D-02 0.183D-01 0.546D-01
 Coeff:     -0.420D+00 0.134D+01
 Gap=     0.090 Goal=   None    Shift=    0.000
 RMSDP=2.14D-04 MaxDP=3.11D-03 DE=-2.99D-05 OVMax= 8.48D-03

 Cycle   9  Pass 1  IDiag  1:
 Density matrix breaks symmetry, PCut= 1.00D-04
 Density has only Abelian symmetry.
 E= -464.219394030157     Delta-E=       -0.000018008038 Rises=F Damp=F
 DIIS: error= 1.52D-04 at cycle   9 NSaved=   9.
 NSaved= 9 IEnMin= 9 EnMin= -464.219394030157     IErMin= 8 ErrMin= 1.50D-04
 ErrMax= 1.52D-04  0.00D+00 EMaxC= 1.00D-01 BMatC= 4.05D-07 BMatP= 4.13D-07
 IDIUse=3 WtCom= 9.99D-01 WtEn= 1.50D-03
 Coeff-Com: -0.365D-03 0.252D-03-0.372D-03 0.244D-01 0.692D-01 0.903D-01
 Coeff-Com: -0.178D+01 0.710D+01-0.450D+01
 Coeff-En:   0.000D+00 0.000D+00 0.000D+00 0.000D+00 0.000D+00 0.000D+00
 Coeff-En:   0.000D+00 0.000D+00 0.100D+01
 Coeff:     -0.364D-03 0.252D-03-0.372D-03 0.244D-01 0.691D-01 0.901D-01
 Coeff:     -0.178D+01 0.709D+01-0.450D+01
 Gap=     0.090 Goal=   None    Shift=    0.000
 RMSDP=6.76D-04 MaxDP=9.73D-03 DE=-1.80D-05 OVMax= 2.69D-02

 Cycle  10  Pass 1  IDiag  1:
 Density matrix breaks symmetry, PCut= 1.00D-04
 Density has only Abelian symmetry.
 E= -464.219338111107     Delta-E=        0.000055919049 Rises=F Damp=F
 DIIS: error= 1.44D-04 at cycle  10 NSaved=  10.
 NSaved=10 IEnMin= 9 EnMin= -464.219394030157     IErMin=10 ErrMin= 1.44D-04
 ErrMax= 1.44D-04  0.00D+00 EMaxC= 1.00D-01 BMatC= 3.65D-07 BMatP= 4.05D-07
 IDIUse=3 WtCom= 9.99D-01 WtEn= 1.44D-03
 Rare condition: small coef for last iteration:  0.000D+00
 Coeff-Com:  0.319D-02-0.439D-02-0.265D-03 0.222D-01 0.739D-01 0.165D+00
 Coeff-Com: -0.131D+01 0.275D+01-0.922D+01 0.852D+01
 Coeff-En:   0.000D+00 0.000D+00 0.000D+00 0.000D+00 0.000D+00 0.000D+00
 Coeff-En:   0.000D+00 0.000D+00 0.000D+00 0.100D+01
 Coeff:      0.319D-02-0.439D-02-0.265D-03 0.222D-01 0.739D-01 0.165D+00
 Coeff:     -0.131D+01 0.275D+01-0.922D+01 0.852D+01
 Gap=     0.090 Goal=   None    Shift=    0.000
 RMSDP=4.87D-03 MaxDP=6.55D-02 DE= 5.59D-05 OVMax= 1.93D-01

 Cycle  11  Pass 1  IDiag  1:
 Density matrix breaks symmetry, PCut= 1.00D-04
 Density has only Abelian symmetry.
 E= -464.219107682098     Delta-E=        0.000230429009 Rises=F Damp=F
 DIIS: error= 5.46D-04 at cycle  11 NSaved=  11.
 NSaved=11 IEnMin= 9 EnMin= -464.219394030157     IErMin=10 ErrMin= 1.44D-04
 ErrMax= 5.46D-04  0.00D+00 EMaxC= 1.00D-01 BMatC= 7.10D-06 BMatP= 3.65D-07
 IDIUse=3 WtCom= 9.99D-01 WtEn= 1.44D-03
 Large coefficients: NSaved= 11 BigCof=   17.51 CofMax=   10.00 Det=-4.71D-10
 Inversion failed.  Reducing to 10 matrices.
 Large coefficients: NSaved= 10 BigCof=   17.44 CofMax=   10.00 Det=-4.71D-10
 Inversion failed.  Reducing to  9 matrices.
 Large coefficients: NSaved=  9 BigCof=   17.44 CofMax=   10.00 Det=-4.83D-10
 Inversion failed.  Reducing to  8 matrices.
 Large coefficients: NSaved=  8 BigCof=   17.46 CofMax=   10.00 Det=-5.18D-10
 Inversion failed.  Reducing to  7 matrices.
 Large coefficients: NSaved=  7 BigCof=   16.83 CofMax=   10.00 Det=-1.11D-09
 Inversion failed.  Reducing to  6 matrices.
 Large coefficients: NSaved=  6 BigCof=   15.48 CofMax=   10.00 Det=-1.26D-09
 Inversion failed.  Reducing to  5 matrices.
 Large coefficients: NSaved=  5 BigCof=   14.54 CofMax=   10.00 Det=-1.34D-09
 Inversion failed.  Reducing to  4 matrices.
 Large coefficients: NSaved=  4 BigCof=   13.75 CofMax=   10.00 Det=-1.45D-09
 Inversion failed.  Reducing to  3 matrices.
 Large coefficients: NSaved=  3 BigCof=   11.15 CofMax=   10.00 Det=-1.87D-09
 Inversion failed.  Reducing to  2 matrices.
 Coeff-Com:  0.101D+01-0.117D-01
 Coeff-En:   0.000D+00 0.100D+01
 Coeff:      0.101D+01-0.102D-01
 Gap=     0.083 Goal=   None    Shift=    0.000
 RMSDP=5.05D-03 MaxDP=6.75D-02 DE= 2.30D-04 OVMax= 2.01D-01

 Cycle  12  Pass 1  IDiag  1:
 Density matrix breaks symmetry, PCut= 1.00D-04
 Density has only Abelian symmetry.
 E= -464.219353192229     Delta-E=       -0.000245510131 Rises=F Damp=F
 DIIS: error= 1.46D-04 at cycle  12 NSaved=   3.
 NSaved= 3 IEnMin= 3 EnMin= -464.219353192229     IErMin= 1 ErrMin= 1.44D-04
 ErrMax= 1.46D-04  0.00D+00 EMaxC= 1.00D-01 BMatC= 3.75D-07 BMatP= 3.65D-07
 IDIUse=3 WtCom= 9.99D-01 WtEn= 1.44D-03
 Coeff-Com:  0.274D+01-0.256D-01-0.171D+01
 Coeff-En:   0.000D+00 0.000D+00 0.100D+01
 Coeff:      0.273D+01-0.255D-01-0.171D+01
 Gap=     0.090 Goal=   None    Shift=    0.000
 RMSDP=2.47D-04 MaxDP=3.51D-03 DE=-2.46D-04 OVMax= 9.85D-03

 Cycle  13  Pass 1  IDiag  1:
 Density matrix breaks symmetry, PCut= 1.00D-04
 Density has only Abelian symmetry.
 E= -464.219333203226     Delta-E=        0.000019989003 Rises=F Damp=F
 DIIS: error= 1.43D-04 at cycle  13 NSaved=   4.
 NSaved= 4 IEnMin= 3 EnMin= -464.219353192229     IErMin= 4 ErrMin= 1.43D-04
 ErrMax= 1.43D-04  0.00D+00 EMaxC= 1.00D-01 BMatC= 3.80D-07 BMatP= 3.65D-07
 IDIUse=3 WtCom= 9.99D-01 WtEn= 1.43D-03
 Large coefficients: NSaved=  4 BigCof=   12.41 CofMax=   10.00 Det=-5.04D-10
 Inversion failed.  Reducing to  3 matrices.
 Rare condition: small coef for last iteration:  0.000D+00
 Coeff-Com:  0.369D+01-0.387D+01 0.118D+01
 Coeff-En:   0.000D+00 0.000D+00 0.100D+01
 Coeff:      0.369D+01-0.387D+01 0.118D+01
 Gap=     0.090 Goal=   None    Shift=    0.000
 RMSDP=6.06D-04 MaxDP=8.34D-03 DE= 2.00D-05 OVMax= 2.41D-02

 Cycle  14  Pass 1  IDiag  1:
 Density matrix breaks symmetry, PCut= 1.00D-04
 Density has only Abelian symmetry.
 E= -464.219286660246     Delta-E=        0.000046542980 Rises=F Damp=F
 DIIS: error= 1.32D-04 at cycle  14 NSaved=   4.
 NSaved= 4 IEnMin= 2 EnMin= -464.219353192229     IErMin= 4 ErrMin= 1.32D-04
 ErrMax= 1.32D-04  0.00D+00 EMaxC= 1.00D-01 BMatC= 3.11D-07 BMatP= 3.65D-07
 IDIUse=3 WtCom= 9.99D-01 WtEn= 1.32D-03
 Large coefficients: NSaved=  4 BigCof=   10.23 CofMax=   10.00 Det=-8.00D-10
 Inversion failed.  Reducing to  3 matrices.
 Rare condition: small coef for last iteration:  0.000D+00
 Coeff-Com: -0.544D+01 0.124D+01 0.520D+01
 Coeff-En:   0.000D+00 0.000D+00 0.100D+01
 Coeff:     -0.544D+01 0.124D+01 0.520D+01
 Gap=     0.090 Goal=   None    Shift=    0.000
 RMSDP=3.69D-03 MaxDP=5.00D-02 DE= 4.65D-05 OVMax= 1.47D-01

 Cycle  15  Pass 1  IDiag  1:
 Density matrix breaks symmetry, PCut= 1.00D-04
 Density has only Abelian symmetry.
 E= -464.219115786128     Delta-E=        0.000170874118 Rises=F Damp=F
 DIIS: error= 3.34D-04 at cycle  15 NSaved=   4.
 NSaved= 4 IEnMin= 1 EnMin= -464.219353192229     IErMin= 3 ErrMin= 1.32D-04
 ErrMax= 3.34D-04  0.00D+00 EMaxC= 1.00D-01 BMatC= 2.75D-06 BMatP= 3.11D-07
 IDIUse=3 WtCom= 9.99D-01 WtEn= 1.32D-03
 Rare condition: small coef for last iteration:  0.000D+00
 Coeff-Com: -0.874D+01 0.277D+01 0.718D+01-0.205D+00
 Coeff-En:   0.000D+00 0.000D+00 0.000D+00 0.100D+01
 Coeff:     -0.874D+01 0.277D+01 0.718D+01-0.205D+00
 Gap=     0.098 Goal=   None    Shift=    0.000
 RMSDP=9.73D-04 MaxDP=1.50D-02 DE= 1.71D-04 OVMax= 3.86D-02

 Cycle  16  Pass 1  IDiag  1:
 Density matrix breaks symmetry, PCut= 1.00D-04
 Density has only Abelian symmetry.
 E= -464.219107694498     Delta-E=        0.000008091630 Rises=F Damp=F
 DIIS: error= 5.89D-04 at cycle  16 NSaved=   5.
 NSaved= 5 IEnMin= 1 EnMin= -464.219353192229     IErMin= 3 ErrMin= 1.32D-04
 ErrMax= 5.89D-04  0.00D+00 EMaxC= 1.00D-01 BMatC= 8.35D-06 BMatP= 3.11D-07
 IDIUse=3 WtCom= 9.99D-01 WtEn= 1.32D-03
 Rare condition: small coef for last iteration:  0.000D+00
 Coeff-Com: -0.339D+01 0.494D+00 0.344D+01 0.113D+01-0.686D+00
 Coeff-En:   0.000D+00 0.000D+00 0.000D+00 0.000D+00 0.100D+01
 Coeff:     -0.339D+01 0.494D+00 0.344D+01 0.113D+01-0.686D+00
 Gap=     0.093 Goal=   None    Shift=    0.000
 RMSDP=1.24D-03 MaxDP=1.89D-02 DE= 8.09D-06 OVMax= 4.92D-02

 Cycle  17  Pass 1  IDiag  1:
 Density matrix breaks symmetry, PCut= 1.00D-04
 Density has only Abelian symmetry.
 E= -464.219120891632     Delta-E=       -0.000013197134 Rises=F Damp=F
 DIIS: error= 2.63D-04 at cycle  17 NSaved=   6.
 NSaved= 6 IEnMin= 1 EnMin= -464.219353192229     IErMin= 3 ErrMin= 1.32D-04
 ErrMax= 2.63D-04  0.00D+00 EMaxC= 1.00D-01 BMatC= 1.71D-06 BMatP= 3.11D-07
 IDIUse=3 WtCom= 9.99D-01 WtEn= 1.32D-03
 Coeff-Com: -0.400D+01 0.137D+01 0.297D+01-0.132D+01-0.327D+00 0.230D+01
 Coeff-En:   0.000D+00 0.000D+00 0.000D+00 0.000D+00 0.000D+00 0.100D+01
 Coeff:     -0.399D+01 0.137D+01 0.296D+01-0.131D+01-0.326D+00 0.230D+01
 Gap=     0.094 Goal=   None    Shift=    0.000
 RMSDP=4.97D-04 MaxDP=7.46D-03 DE=-1.32D-05 OVMax= 1.97D-02

 Cycle  18  Pass 1  IDiag  1:
 Density matrix breaks symmetry, PCut= 1.00D-04
 Density has only Abelian symmetry.
 E= -464.219114868330     Delta-E=        0.000006023303 Rises=F Damp=F
 DIIS: error= 3.08D-04 at cycle  18 NSaved=   7.
 NSaved= 7 IEnMin= 1 EnMin= -464.219353192229     IErMin= 3 ErrMin= 1.32D-04
 ErrMax= 3.08D-04  0.00D+00 EMaxC= 1.00D-01 BMatC= 2.26D-06 BMatP= 3.11D-07
 IDIUse=3 WtCom= 9.99D-01 WtEn= 1.32D-03
 Rare condition: small coef for last iteration:  0.000D+00
 Coeff-Com: -0.424D+01 0.197D+01 0.249D+01-0.430D+01-0.745D-01 0.280D+01
 Coeff-Com:  0.236D+01
 Coeff-En:   0.000D+00 0.000D+00 0.000D+00 0.000D+00 0.000D+00 0.000D+00
 Coeff-En:   0.100D+01
 Coeff:     -0.424D+01 0.197D+01 0.249D+01-0.430D+01-0.745D-01 0.280D+01
 Coeff:      0.236D+01
 Gap=     0.094 Goal=   None    Shift=    0.000
 RMSDP=9.56D-04 MaxDP=1.48D-02 DE= 6.02D-06 OVMax= 3.77D-02

 Cycle  19  Pass 1  IDiag  1:
 Density matrix breaks symmetry, PCut= 1.00D-04
 Density has only Abelian symmetry.
 E= -464.219118502765     Delta-E=       -0.000003634436 Rises=F Damp=F
 DIIS: error= 3.35D-04 at cycle  19 NSaved=   8.
 NSaved= 8 IEnMin= 1 EnMin= -464.219353192229     IErMin= 3 ErrMin= 1.32D-04
 ErrMax= 3.35D-04  0.00D+00 EMaxC= 1.00D-01 BMatC= 2.69D-06 BMatP= 3.11D-07
 IDIUse=3 WtCom= 9.99D-01 WtEn= 1.32D-03
 Coeff-Com: -0.267D+01 0.878D+00 0.215D+01-0.492D+00-0.798D+00 0.446D+00
 Coeff-Com:  0.154D+00 0.134D+01
 Coeff-En:   0.000D+00 0.000D+00 0.000D+00 0.000D+00 0.000D+00 0.000D+00
 Coeff-En:   0.000D+00 0.100D+01
 Coeff:     -0.267D+01 0.877D+00 0.214D+01-0.492D+00-0.796D+00 0.445D+00
 Coeff:      0.153D+00 0.134D+01
 Gap=     0.092 Goal=   None    Shift=    0.000
 RMSDP=1.19D-04 MaxDP=1.78D-03 DE=-3.63D-06 OVMax= 4.54D-03

 Cycle  20  Pass 1  IDiag  1:
 Density matrix breaks symmetry, PCut= 1.00D-04
 Density has only Abelian symmetry.
 E= -464.219119632362     Delta-E=       -0.000001129597 Rises=F Damp=F
 DIIS: error= 1.75D-04 at cycle  20 NSaved=   9.
 NSaved= 9 IEnMin= 1 EnMin= -464.219353192229     IErMin= 3 ErrMin= 1.32D-04
 ErrMax= 1.75D-04  0.00D+00 EMaxC= 1.00D-01 BMatC= 7.30D-07 BMatP= 3.11D-07
 IDIUse=3 WtCom= 9.99D-01 WtEn= 1.32D-03
 Coeff-Com: -0.914D+00 0.477D+00 0.641D+00-0.282D+00 0.601D-01 0.187D+00
 Coeff-Com: -0.116D+00-0.820D+00 0.177D+01
 Coeff-En:   0.000D+00 0.000D+00 0.000D+00 0.000D+00 0.000D+00 0.000D+00
 Coeff-En:   0.000D+00 0.000D+00 0.100D+01
 Coeff:     -0.912D+00 0.476D+00 0.640D+00-0.281D+00 0.600D-01 0.186D+00
 Coeff:     -0.116D+00-0.819D+00 0.177D+01
 Gap=     0.089 Goal=   None    Shift=    0.000
 RMSDP=4.47D-04 MaxDP=6.95D-03 DE=-1.13D-06 OVMax= 1.77D-02

 >>>>>>>>>> Convergence criterion not met.
 SCF Done:  E(RPBE1PBE) =  -464.219119632     A.U. after   21 cycles
            NFock= 20  Conv=0.45D-03     -V/T= 2.0947
 KE= 4.240648100575D+02 PE=-1.967912797483D+03 EE= 6.503862358778D+02
 Leave Link  502 at Sat Oct 18 14:05:23 2025, MaxMem=  4294967296 cpu:               3.3 elap:               0.4
 (Enter /opt/modules/software/gaussian/G16-C01/l508.exe)
 Keep R1 ints in memory in symmetry-blocked form, NReq=8551916.
 FoFCou: FMM=F IPFlag=           0 FMFlag=           0 FMFlg1=           0
         NFxFlg=           0 DoJE=F BraDBF=F KetDBF=F FulRan=T
         wScrn=  0.000000 ICntrl=       600 IOpCl=  0 I1Cent=           0 NGrid=           0
         NMat0=    1 NMatS0=   1711 NMatT0=    0 NMatD0=    1 NMtDS0=    0 NMtDT0=    0
 Petite list used in FoFCou.
 Tight linear equation convergence will be used.
 RPBE1PBE wavefunction.
 Quadratic Convergence SCF Method.
 Line search only if initial step raises energy.
 Density matrix breaks symmetry, PCut= 1.00D-04
 Density has only Abelian symmetry.
 Iteration   1 EE= -464.219117451302                                    Grad=9.549D-05 Max rot=    0.0009 deg.
 QCNR:  CnvC1=9.55D-10 CnvC2=9.55D-09
 LinEq1:  Iter=  0 NonCon=     1 RMS=5.99D-06 Max=1.60D-04 NDo=     1
 AX will form     1 AO Fock derivatives at one time.
 LinEq1:  Iter=  1 NonCon=     1 RMS=1.83D-06 Max=1.71D-05 NDo=     1
 LinEq1:  Iter=  2 NonCon=     1 RMS=8.94D-07 Max=9.70D-06 NDo=     1
 LinEq1:  Iter=  3 NonCon=     1 RMS=5.28D-07 Max=9.59D-06 NDo=     1
 LinEq1:  Iter=  4 NonCon=     1 RMS=3.56D-07 Max=6.06D-06 NDo=     1
 LinEq1:  Iter=  5 NonCon=     1 RMS=8.41D-08 Max=9.93D-07 NDo=     1
 LinEq1:  Iter=  6 NonCon=     1 RMS=4.34D-09 Max=3.83D-08 NDo=     1
 LinEq1:  Iter=  7 NonCon=     0 RMS=4.42D-10 Max=5.36D-09 NDo=     1
 Linear equations converged to 9.549D-10 9.549D-09 after     7 iterations.
 Angle between quadratic step and gradient= 102.24 degrees.
 Incorrect curvature in search direction -- initial direction reversed.
     ILin= 1 X=0.000D+00 Y=-4.642191174513D+02 DE= 0.00D+00 F= -2.64D-07
     ILin= 2 X=1.000D+00 Y=-4.642191178470D+02 DE=-3.96D-07 F= -5.27D-07 OKLS=F
     ILin= 3 X=2.000D+00 Y=-4.642191185053D+02 DE=-1.05D-06 F= -7.89D-07
     ILin= 4 X=4.000D+00 Y=-4.642191206035D+02 DE=-3.15D-06 F= -1.31D-06
     ILin= 5 X=8.000D+00 Y=-4.642191278669D+02 DE=-1.04D-05 F= -2.32D-06
     ILin= 6 X=1.600D+01 Y=-4.642191539952D+02 DE=-3.65D-05 F= -4.17D-06
     ILin= 7 X=3.200D+01 Y=-4.642192442690D+02 DE=-1.27D-04 F= -6.83D-06
     ILin= 8 X=6.400D+01 Y=-4.642194665509D+02 DE=-3.49D-04 F= -5.25D-06
     ILin= 9 X=1.280D+02 Y=-4.642188018736D+02 DE= 3.16D-04 F=  3.37D-05
     An  expanding polynomial of degree  9 produced 79.9130
 Density matrix breaks symmetry, PCut= 1.00D-04
 Density has only Abelian symmetry.
 Iteration   2 EE= -464.219512830848     Delta-E=       -0.000395379546 Grad=1.814D-02 Max rot=    0.1990 deg.
 Gradient too large for Newton-Raphson -- use scaled steepest descent instead.
 Alpha Gap=     0.092 HL deriv= 2.16D-03
     ILin= 1 X=0.000D+00 Y=-4.642195128308D+02 DE= 0.00D+00 F= -3.88D-04
     ILin= 2 X=3.000D-01 Y=-4.642196120459D+02 DE=-9.92D-05 F= -2.74D-04 OKLS=F
     ILin= 3 X=6.000D-01 Y=-4.642196769808D+02 DE=-1.64D-04 F= -1.59D-04
     ILin= 4 X=1.200D+00 Y=-4.642197039972D+02 DE=-1.91D-04 F=  6.93D-05
     Accept linear search using points  3 and  4.
     An  expanding polynomial of degree  4 produced  0.9502
 Density matrix breaks symmetry, PCut= 1.00D-04
 Density has only Abelian symmetry.
 Iteration   3 EE= -464.219709412256     Delta-E=       -0.000196581408 Grad=1.969D-03 Max rot=    0.0264 deg.
 QCNR:  CnvC1=4.06D-09 CnvC2=4.06D-08
 LinEq1:  Iter=  0 NonCon=     1 RMS=1.63D-04 Max=4.49D-03 NDo=     1
 LinEq1:  Iter=  1 NonCon=     1 RMS=4.07D-05 Max=4.41D-04 NDo=     1
 LinEq1:  Iter=  2 NonCon=     1 RMS=2.07D-05 Max=2.66D-04 NDo=     1
 LinEq1:  Iter=  3 NonCon=     1 RMS=5.75D-06 Max=1.21D-04 NDo=     1
 LinEq1:  Iter=  4 NonCon=     1 RMS=1.39D-06 Max=1.33D-05 NDo=     1
 LinEq1:  Iter=  5 NonCon=     1 RMS=1.05D-06 Max=1.58D-05 NDo=     1
 LinEq1:  Iter=  6 NonCon=     1 RMS=1.27D-07 Max=1.92D-06 NDo=     1
 LinEq1:  Iter=  7 NonCon=     1 RMS=9.49D-09 Max=1.53D-07 NDo=     1
 LinEq1:  Iter=  8 NonCon=     0 RMS=8.14D-10 Max=1.30D-08 NDo=     1
 Linear equations converged to 4.062D-09 4.062D-08 after     8 iterations.
 Angle between quadratic step and gradient=  71.60 degrees.
     ILin= 1 X=0.000D+00 Y=-4.642197094123D+02 DE= 0.00D+00 F= -3.65D-04
     ILin= 2 X=1.000D+00 Y=-4.642198097993D+02 DE=-1.00D-04 F=  2.38D-04 OKLS=T
     Accept linear search using points  1 and  2.
     An  expanding polynomial of degree  2 produced  0.6862
 Density matrix breaks symmetry, PCut= 1.00D-04
 Density has only Abelian symmetry.
 Iteration   4 EE= -464.219846977955     Delta-E=       -0.000137565699 Grad=2.888D-03 Max rot=    0.0814 deg.
 QCNR:  CnvC1=4.06D-09 CnvC2=4.06D-08
 LinEq1:  Iter=  0 NonCon=     1 RMS=7.17D-05 Max=1.62D-03 NDo=     1
 LinEq1:  Iter=  1 NonCon=     1 RMS=2.32D-05 Max=3.48D-04 NDo=     1
 LinEq1:  Iter=  2 NonCon=     1 RMS=8.35D-06 Max=1.45D-04 NDo=     1
 LinEq1:  Iter=  3 NonCon=     1 RMS=7.74D-06 Max=1.42D-04 NDo=     1
 LinEq1:  Iter=  4 NonCon=     1 RMS=5.16D-06 Max=6.07D-05 NDo=     1
 LinEq1:  Iter=  5 NonCon=     1 RMS=2.21D-06 Max=1.91D-05 NDo=     1
 LinEq1:  Iter=  6 NonCon=     1 RMS=3.07D-07 Max=5.28D-06 NDo=     1
 LinEq1:  Iter=  7 NonCon=     1 RMS=3.62D-07 Max=4.59D-06 NDo=     1
 LinEq1:  Iter=  8 NonCon=     1 RMS=3.14D-08 Max=4.21D-07 NDo=     1
 LinEq1:  Iter=  9 NonCon=     0 RMS=2.15D-09 Max=2.93D-08 NDo=     1
 Linear equations converged to 4.062D-09 4.062D-08 after     9 iterations.
 Angle between quadratic step and gradient=  80.30 degrees.
     ILin= 1 X=0.000D+00 Y=-4.642198469780D+02 DE= 0.00D+00 F= -1.29D-05
     ILin= 2 X=1.000D+00 Y=-4.642198531724D+02 DE=-6.19D-06 F= -1.20D-07 OKLS=T
     Reject lnstep IMin12=  1  2 Big=T Turn=F Min= 1.011D+00 FVal=-4.642198531730D+02 Lims=  0.00D+00  1.00D+00
     ILin= 3 X=2.000D+00 Y=-4.642198469995D+02 DE=-2.15D-08 F=  1.24D-05
     An  expanding polynomial of degree  3 produced  1.0009
     Minimum is close to point  2 DX=  8.69D-04 DF= -4.66D-12 DXR=  8.69D-04 DFR=  7.52D-07 which will be used.
 Density matrix breaks symmetry, PCut= 1.00D-04
 Density has only Abelian symmetry.
 Iteration   5 EE= -464.219853172374     Delta-E=       -0.000006194419 Grad=1.277D-05 Max rot=    0.0003 deg.
 QCNR:  CnvC1=1.28D-10 CnvC2=1.28D-09
 LinEq1:  Iter=  0 NonCon=     1 RMS=9.05D-07 Max=2.41D-05 NDo=     1
 LinEq1:  Iter=  1 NonCon=     1 RMS=2.92D-07 Max=3.65D-06 NDo=     1
 LinEq1:  Iter=  2 NonCon=     1 RMS=2.47D-07 Max=3.67D-06 NDo=     1
 LinEq1:  Iter=  3 NonCon=     1 RMS=1.31D-07 Max=2.51D-06 NDo=     1
 LinEq1:  Iter=  4 NonCon=     1 RMS=1.30D-07 Max=2.38D-06 NDo=     1
 LinEq1:  Iter=  5 NonCon=     1 RMS=5.06D-08 Max=5.33D-07 NDo=     1
 LinEq1:  Iter=  6 NonCon=     1 RMS=2.02D-08 Max=1.55D-07 NDo=     1
 LinEq1:  Iter=  7 NonCon=     1 RMS=1.12D-08 Max=1.83D-07 NDo=     1
 LinEq1:  Iter=  8 NonCon=     1 RMS=3.07D-09 Max=3.37D-08 NDo=     1
 LinEq1:  Iter=  9 NonCon=     1 RMS=2.04D-10 Max=1.65D-09 NDo=     1
 LinEq1:  Iter= 10 NonCon=     1 RMS=1.34D-10 Max=2.71D-09 NDo=     1
 LinEq1:  Iter= 11 NonCon=     0 RMS=3.16D-11 Max=2.84D-10 NDo=     1
 Linear equations converged to 1.277D-10 1.277D-09 after    11 iterations.
 Angle between quadratic step and gradient=  75.29 degrees.
     ILin= 1 X=0.000D+00 Y=-4.642198531724D+02 DE= 0.00D+00 F= -6.16D-09
     ILin= 2 X=1.000D+00 Y=-4.642198531755D+02 DE=-3.08D-09
 Density matrix breaks symmetry, PCut= 1.00D-04
 Density has only Abelian symmetry.
 Iteration   6 EE= -464.219853175454     Delta-E=       -0.000000003080 Grad=6.497D-08 Max rot=    0.0000 deg.
 Rotation gradient small -- convergence achieved.
 Orbital symmetries in SymMO:
    1=1    2=3    3=2    4=4    5=1    6=4    7=2    8=3    9=3   10=2
   11=4   12=1   13=1   14=1   15=4   16=2   17=3   18=3   19=2   20=4
   21=3   22=2   23=4   24=1   25=1   26=1   27=4   28=2   29=3   30=1
   31=4   32=2   33=3   34=3   35=2   36=4   37=1   38=1   39=4   40=2
   41=3   42=1   43=3   44=2   45=4   46=3   47=2   48=4   49=4   50=2
   51=3   52=1   53=1   54=1   55=4   56=2   57=3   58=1
 SCF Done:  E(RPBE1PBE) =  -464.219853175     a.u. after    6 cycles
            Convg  =    0.6497D-07                    54 Fock formations.
              S**2 =  0.0000                  -V/T =  2.0947
 Density matrix breaks symmetry, PCut= 1.00D-04
 Density has only Abelian symmetry.
 Leave Link  508 at Sat Oct 18 14:05:26 2025, MaxMem=  4294967296 cpu:              24.8 elap:               3.1
 (Enter /opt/modules/software/gaussian/G16-C01/l601.exe)
 Copying SCF densities to generalized density rwf, IOpCl= 0 IROHF=0.
 SCF density gives NOpUse=  4 NOpAll= 24.
 Marking SCF density as not fully symmetric.

 **********************************************************************

            Population analysis using the SCF Density.

 **********************************************************************

 Orbital symmetries:
       Occupied  (A1) (T2) (T2) (T2) (?A) (T2) (T2) (T2) (?B) (?B)
                 (?B) (?A) (?A) (?A) (?B) (?B) (?B) (?B) (?B) (?B)
                 (?B) (?B) (?B) (?A) (?A)
       Virtual   (?A) (T2) (T2) (T2) (A1) (?B) (?B) (?B) (?B) (?B)
                 (?B) (?A) (?A) (?C) (?C) (?C) (?A) (?C) (?C) (?C)
                 (?C) (?C) (?C) (?C) (?C) (?C) (?A) (?A) (?A) (T2)
                 (T2) (T2) (A1)
 Unable to determine electronic state:  an orbital has unidentified symmetry.
 Alpha  occ. eigenvalues --  -19.37370 -19.37367 -19.37367 -19.37365  -4.95940
 Alpha  occ. eigenvalues --   -3.61799  -3.58117  -3.58117  -1.44455  -1.44455
 Alpha  occ. eigenvalues --   -1.42620  -1.28096  -1.27236  -1.16897  -0.87742
 Alpha  occ. eigenvalues --   -0.87079  -0.87079  -0.49258  -0.49258  -0.48954
 Alpha  occ. eigenvalues --   -0.42237  -0.42237  -0.42230  -0.33688  -0.27529
 Alpha virt. eigenvalues --   -0.18397   0.01672   0.01918   0.01918   0.04661
 Alpha virt. eigenvalues --    0.19238   0.19513   0.19513   0.27830   0.27830
 Alpha virt. eigenvalues --    0.28050   0.50711   0.50973   0.63696   0.63739
 Alpha virt. eigenvalues --    0.63739   0.70843   0.72559   0.72559   0.72863
 Alpha virt. eigenvalues --    0.76871   0.76871   0.77312   0.88887   0.89167
 Alpha virt. eigenvalues --    0.89167   0.99466   1.23583   1.25156   1.56725
 Alpha virt. eigenvalues --    1.57256   1.57256  19.32169
          Condensed to atoms (all electrons):
               1          2          3          4          5
     1  Ni  17.951770  -0.070487  -0.070487  -0.070487  -0.070487
     2  O   -0.070487   8.809017  -0.187959  -0.187959  -0.280068
     3  O   -0.070487  -0.187959   8.809017  -0.280068  -0.187959
     4  O   -0.070487  -0.187959  -0.280068   8.809017  -0.187959
     5  O   -0.070487  -0.280068  -0.187959  -0.187959   8.809017
 Mulliken charges:
               1
     1  Ni   0.330177
     2  O   -0.082544
     3  O   -0.082544
     4  O   -0.082544
     5  O   -0.082544
 Sum of Mulliken charges =   0.00000
 Mulliken charges with hydrogens summed into heavy atoms:
               1
     1  Ni   0.330177
     2  O   -0.082544
     3  O   -0.082544
     4  O   -0.082544
     5  O   -0.082544
 Electronic spatial extent (au):  <R**2>=            191.9469
 Charge=              0.0000 electrons
 Dipole moment (field-independent basis, Debye):
    X=              0.0000    Y=              0.0000    Z=              0.0000  Tot=              0.0000
 Quadrupole moment (field-independent basis, Debye-Ang):
   XX=            -33.6708   YY=            -35.4009   ZZ=            -35.4009
   XY=              0.0000   XZ=              0.0000   YZ=             -0.0000
 Traceless Quadrupole moment (field-independent basis, Debye-Ang):
   XX=              1.1534   YY=             -0.5767   ZZ=             -0.5767
   XY=              0.0000   XZ=              0.0000   YZ=             -0.0000
 Octapole moment (field-independent basis, Debye-Ang**2):
  XXX=              0.0000  YYY=              0.0000  ZZZ=              0.0000  XYY=              0.0000
  XXY=              0.0000  XXZ=             -0.0000  XZZ=              0.0000  YZZ=              0.0000
  YYZ=              0.0000  XYZ=             -2.8988
 Hexadecapole moment (field-independent basis, Debye-Ang**3):
 XXXX=            -71.2066 YYYY=            -76.8573 ZZZZ=            -76.8573 XXXY=              0.0000
 XXXZ=              0.0000 YYYX=              0.0000 YYYZ=             -0.0000 ZZZX=              0.0000
 ZZZY=             -0.0000 XXYY=            -26.4921 XXZZ=            -26.4921 YYZZ=            -25.9206
 XXYZ=             -0.0000 YYXZ=              0.0000 ZZXY=              0.0000
 N-N= 4.292426319152D+02 E-N=-1.967919564625D+03  KE= 4.240695258966D+02
 Symmetry A    KE= 1.159353264737D+02
 Symmetry B1   KE= 1.027704757434D+02
 Symmetry B2   KE= 1.027704758443D+02
 Symmetry B3   KE= 1.025932478352D+02
 No NMR shielding tensors so no spin-rotation constants.
 Leave Link  601 at Sat Oct 18 14:05:26 2025, MaxMem=  4294967296 cpu:               0.4 elap:               0.1
 (Enter /opt/modules/software/gaussian/G16-C01/l108.exe)
 Variable Step   Value    
 -------- ---- -----------
     1       1    1.984212
 Leave Link  108 at Sat Oct 18 14:05:26 2025, MaxMem=  4294967296 cpu:               0.0 elap:               0.0
 (Enter /opt/modules/software/gaussian/G16-C01/l202.exe)
 ---------------------------------------------------------------------------------------------------
                            Z-MATRIX (ANGSTROMS AND DEGREES)
   CD    Cent   Atom    N1       Length/X        N2       Alpha/Y        N3        Beta/Z          J
 ---------------------------------------------------------------------------------------------------
      1      1  Ni
      2      2  O        1   1.050000(     1)
      3      3  O        1   1.050000(     2)      2  109.471(     5)
      4      4  O        1   1.050000(     3)      3  109.471(     6)      2 -120.000(     8)      0
      5      5  O        1   1.050000(     4)      4  109.471(     7)      3  120.000(     9)      0
 ---------------------------------------------------------------------------------------------------
                         Z-Matrix orientation:                         
 ---------------------------------------------------------------------
 Center     Atomic      Atomic             Coordinates (Angstroms)
 Number     Number       Type             X           Y           Z
 ---------------------------------------------------------------------
      1         28           0        0.000000    0.000000    0.000000
      2          8           0        0.000000    0.000000    1.050000
      3          8           0        0.989949    0.000000   -0.350000
      4          8           0       -0.494975   -0.857321   -0.350000
      5          8           0       -0.494975    0.857321   -0.350000
 ---------------------------------------------------------------------
                    Distance matrix (angstroms):
                    1          2          3          4          5
     1  Ni   0.000000
     2  O    1.050000   0.000000
     3  O    1.050000   1.714643   0.000000
     4  O    1.050000   1.714643   1.714643   0.000000
     5  O    1.050000   1.714643   1.714643   1.714643   0.000000
 Stoichiometry    NiO4
 Framework group  TD[O(Ni),4C3(O)]
 Deg. of freedom     1
 Full point group                 TD      NOp  24
 RotChk:  IX=0 Diff= 6.72D-16
 Largest Abelian subgroup         D2      NOp   4
 Largest concise Abelian subgroup D2      NOp   4
                         Standard orientation:                         
 ---------------------------------------------------------------------
 Center     Atomic      Atomic             Coordinates (Angstroms)
 Number     Number       Type             X           Y           Z
 ---------------------------------------------------------------------
      1         28           0        0.000000    0.000000    0.000000
      2          8           0        0.606218    0.606218    0.606218
      3          8           0       -0.606218   -0.606218    0.606218
      4          8           0       -0.606218    0.606218   -0.606218
      5          8           0        0.606218   -0.606218   -0.606218
 ---------------------------------------------------------------------
 Rotational constants (GHZ):          10.7470172          10.7470172          10.7470172
 Leave Link  202 at Sat Oct 18 14:05:26 2025, MaxMem=  4294967296 cpu:               0.0 elap:               0.0
 (Enter /opt/modules/software/gaussian/G16-C01/l301.exe)
 Basis read from rwf:  (5D, 7F)
 Pseudo-potential data read from rwf file.
 There are    18 symmetry adapted cartesian basis functions of A   symmetry.
 There are    14 symmetry adapted cartesian basis functions of B1  symmetry.
 There are    14 symmetry adapted cartesian basis functions of B2  symmetry.
 There are    14 symmetry adapted cartesian basis functions of B3  symmetry.
 There are    16 symmetry adapted basis functions of A   symmetry.
 There are    14 symmetry adapted basis functions of B1  symmetry.
 There are    14 symmetry adapted basis functions of B2  symmetry.
 There are    14 symmetry adapted basis functions of B3  symmetry.
    58 basis functions,   152 primitive gaussians,    60 cartesian basis functions
    25 alpha electrons       25 beta electrons
       nuclear repulsion energy       408.8025065859 Hartrees.
 IExCor= 1009 DFT=T Ex+Corr=PBE1PBE ExCW=0 ScaHFX=  0.250000
 ScaDFX=  0.750000  0.750000  1.000000  1.000000 ScalE2=  1.000000  1.000000
 IRadAn=      5 IRanWt=     -1 IRanGd=            0 ICorTp=0 IEmpDi=  4
 NAtoms=    5 NActive=    5 NUniq=    2 SFac= 4.00D+00 NAtFMM=   60 NAOKFM=F Big=F
 Integral buffers will be    131072 words long.
 Raffenetti 2 integral format.
 Two-electron integral symmetry is turned on.
 No density basis found on file    724.
 Leave Link  301 at Sat Oct 18 14:05:26 2025, MaxMem=  4294967296 cpu:               0.2 elap:               0.0
 (Enter /opt/modules/software/gaussian/G16-C01/l302.exe)
 NPDir=0 NMtPBC=     1 NCelOv=     1 NCel=       1 NClECP=     1 NCelD=      1
         NCelK=      1 NCelE2=     1 NClLst=     1 CellRange=     0.0.
 One-electron integrals computed using PRISM.
 One-electron integral symmetry used in STVInt
  24 Symmetry operations used in ECPInt.
 ECPInt:  NShTT=     406 NPrTT=    3130 LenC2=     407 LenP2D=    2658.
 LDataN:  DoStor=T MaxTD1= 4 Len=   56
 NBasis=    58 RedAO= T EigKep=  1.39D-02  NBF=    16    14    14    14
 NBsUse=    58 1.00D-06 EigRej= -1.00D+00 NBFU=    16    14    14    14
 Precomputing XC quadrature grid using
 IXCGrd= 4 IRadAn=           5 IRanWt=          -1 IRanGd=           0 AccXCQ= 0.00D+00.
 Generated NRdTot=       0 NPtTot=           0 NUsed=           0 NTot=          32
 NSgBfM=    60    60    60    60    60 MxSgAt=     5 MxSgA2=     5.
 Leave Link  302 at Sat Oct 18 14:05:26 2025, MaxMem=  4294967296 cpu:               0.6 elap:               0.1
 (Enter /opt/modules/software/gaussian/G16-C01/l303.exe)
 DipDrv:  MaxL=1.
 Leave Link  303 at Sat Oct 18 14:05:26 2025, MaxMem=  4294967296 cpu:               0.1 elap:               0.0
 (Enter /opt/modules/software/gaussian/G16-C01/l401.exe)
 Initial guess from the checkpoint file:  "/home/futera/Documents/2025-nife2o4-params/bond-parameters/pbe0-lanl2dz/Gau-3729693.chk"
 B after Tr=    -0.000000   -0.000000   -0.000000
         Rot=    1.000000    0.000000   -0.000000    0.000000 Ang=   0.00 deg.
 Guess basis will be translated and rotated to current coordinates.
 JPrj=2 DoOrth=T DoCkMO=T.
 Initial guess orbital symmetries:
       Occupied  (A1) (T2) (T2) (T2) (?A) (T2) (T2) (T2) (?B) (?B)
                 (?B) (?A) (?A) (?A) (?B) (?B) (?B) (?B) (?B) (?B)
                 (?B) (?B) (?B) (?A) (?A)
       Virtual   (?A) (T2) (T2) (T2) (?A) (?B) (?B) (?B) (?B) (?B)
                 (?B) (?A) (?A) (?C) (?C) (?C) (?A) (?C) (?C) (?C)
                 (?C) (?C) (?C) (?C) (?C) (?C) (?A) (?A) (?A) (T2)
                 (T2) (T2) (A1)
 Generating alternative initial guess.
 ExpMin= 2.40D-02 ExpMax= 7.82D+03 ExpMxC= 2.73D+02 IAcc=3 IRadAn=         5 AccDes= 0.00D+00
 Harris functional with IExCor= 1009 and IRadAn=       5 diagonalized for initial guess.
 HarFok:  IExCor= 1009 AccDes= 0.00D+00 IRadAn=         5 IDoV= 1 UseB2=F ITyADJ=14
 ICtDFT=  3500011 ScaDFX=  1.000000  1.000000  1.000000  1.000000
 FoFCou: FMM=F IPFlag=           0 FMFlag=      100000 FMFlg1=           0
         NFxFlg=           0 DoJE=T BraDBF=F KetDBF=T FulRan=T
         wScrn=  0.000000 ICntrl=       500 IOpCl=  0 I1Cent=   200000004 NGrid=           0
         NMat0=    1 NMatS0=      1 NMatT0=    0 NMatD0=    1 NMtDS0=    0 NMtDT0=    0
 Petite list used in FoFCou.
 Harris En= -466.348570948829    
 Leave Link  401 at Sat Oct 18 14:05:27 2025, MaxMem=  4294967296 cpu:               0.8 elap:               0.1
 (Enter /opt/modules/software/gaussian/G16-C01/l502.exe)
 Keep R1 ints in memory in symmetry-blocked form, NReq=8551516.
 FoFCou: FMM=F IPFlag=           0 FMFlag=           0 FMFlg1=           0
         NFxFlg=           0 DoJE=F BraDBF=F KetDBF=F FulRan=T
         wScrn=  0.000000 ICntrl=       600 IOpCl=  0 I1Cent=           0 NGrid=           0
         NMat0=    1 NMatS0=   1711 NMatT0=    0 NMatD0=    1 NMtDS0=    0 NMtDT0=    0
 Petite list used in FoFCou.
 Closed shell SCF:
 Using DIIS extrapolation, IDIIS=  1040.
 NGot=  4294967296 LenX=  4294585980 LenY=  4294581939
 Requested convergence on RMS density matrix=1.00D-08 within  20 cycles.
 Requested convergence on MAX density matrix=1.00D-06.
 Requested convergence on             energy=1.00D-06.
 No special actions if energy rises.

 Cycle   1  Pass 1  IDiag  1:
 Density matrix breaks symmetry, PCut= 1.00D-04
 Density has only Abelian symmetry.
 E= -465.503176738759    
 DIIS: error= 8.81D-02 at cycle   1 NSaved=   1.
 NSaved= 1 IEnMin= 1 EnMin= -465.503176738759     IErMin= 1 ErrMin= 8.81D-02
 ErrMax= 8.81D-02  0.00D+00 EMaxC= 1.00D-01 BMatC= 9.87D-02 BMatP= 9.87D-02
 IDIUse=3 WtCom= 1.19D-01 WtEn= 8.81D-01
 Coeff-Com:  0.100D+01
 Coeff-En:   0.100D+01
 Coeff:      0.100D+01
 Recover alternate guess density for next cycle.
 RMSDP=3.20D-02 MaxDP=5.47D-01              OVMax= 0.00D+00

 Cycle   2  Pass 1  IDiag  1:
 Density matrix breaks symmetry, PCut= 1.00D-04
 Density has only Abelian symmetry.
 E= -464.380899986699     Delta-E=        1.122276752060 Rises=F Damp=F
 Switch densities from cycles 1 and 2 for lowest energy.
 DIIS: error= 1.77D-01 at cycle   2 NSaved=   2.
 NSaved= 2 IEnMin= 1 EnMin= -465.503176738759     IErMin= 1 ErrMin= 8.81D-02
 ErrMax= 1.77D-01  0.00D+00 EMaxC= 1.00D+00 BMatC= 2.09D+00 BMatP= 9.87D-02
 IDIUse=1 WtCom= 1.00D+00 WtEn= 0.00D+00
 Coeff-Com:  0.942D+00 0.582D-01
 Coeff:      0.942D+00 0.582D-01
 Gap=     0.082 Goal=   None    Shift=    0.000
 RMSDP=6.23D-03 MaxDP=1.71D-01 DE= 1.12D+00 OVMax= 1.75D-02

 Cycle   3  Pass 1  IDiag  1:
 Density matrix breaks symmetry, PCut= 1.00D-04
 Density has only Abelian symmetry.
 E= -465.528520578873     Delta-E=       -1.147620592174 Rises=F Damp=F
 DIIS: error= 6.03D-03 at cycle   3 NSaved=   3.
 NSaved= 3 IEnMin= 3 EnMin= -465.528520578873     IErMin= 3 ErrMin= 6.03D-03
 ErrMax= 6.03D-03  0.00D+00 EMaxC= 1.00D+00 BMatC= 2.41D-03 BMatP= 9.87D-02
 IDIUse=1 WtCom= 1.00D+00 WtEn= 0.00D+00
 Coeff-Com:  0.195D-03 0.248D-01 0.975D+00
 Coeff:      0.195D-03 0.248D-01 0.975D+00
 Gap=     0.085 Goal=   None    Shift=    0.000
 RMSDP=1.09D-03 MaxDP=1.15D-02 DE=-1.15D+00 OVMax= 1.23D-02

 Cycle   4  Pass 1  IDiag  1:
 Density matrix breaks symmetry, PCut= 1.00D-04
 Density has only Abelian symmetry.
 E= -465.529944906568     Delta-E=       -0.001424327695 Rises=F Damp=F
 DIIS: error= 2.17D-03 at cycle   4 NSaved=   4.
 NSaved= 4 IEnMin= 4 EnMin= -465.529944906568     IErMin= 4 ErrMin= 2.17D-03
 ErrMax= 2.17D-03  0.00D+00 EMaxC= 1.00D+00 BMatC= 2.77D-04 BMatP= 2.41D-03
 IDIUse=1 WtCom= 1.00D+00 WtEn= 0.00D+00
 Coeff-Com: -0.535D-02 0.450D-02 0.288D+00 0.713D+00
 Coeff:     -0.535D-02 0.450D-02 0.288D+00 0.713D+00
 Gap=     0.089 Goal=   None    Shift=    0.000
 RMSDP=4.27D-04 MaxDP=4.45D-03 DE=-1.42D-03 OVMax= 3.22D-03

 Cycle   5  Pass 1  IDiag  1:
 Density matrix breaks symmetry, PCut= 1.00D-04
 Density has only Abelian symmetry.
 E= -465.530137623316     Delta-E=       -0.000192716748 Rises=F Damp=F
 DIIS: error= 1.28D-03 at cycle   5 NSaved=   5.
 NSaved= 5 IEnMin= 5 EnMin= -465.530137623316     IErMin= 5 ErrMin= 1.28D-03
 ErrMax= 1.28D-03  0.00D+00 EMaxC= 1.00D+00 BMatC= 6.77D-05 BMatP= 2.77D-04
 IDIUse=1 WtCom= 1.00D+00 WtEn= 0.00D+00
 Coeff-Com: -0.676D-03-0.729D-03 0.902D-01 0.325D+00 0.586D+00
 Coeff:     -0.676D-03-0.729D-03 0.902D-01 0.325D+00 0.586D+00
 Gap=     0.090 Goal=   None    Shift=    0.000
 RMSDP=1.39D-04 MaxDP=1.15D-03 DE=-1.93D-04 OVMax= 9.44D-04

 Cycle   6  Pass 1  IDiag  1:
 Density matrix breaks symmetry, PCut= 1.00D-04
 Density has only Abelian symmetry.
 E= -465.530180109880     Delta-E=       -0.000042486564 Rises=F Damp=F
 DIIS: error= 3.03D-05 at cycle   6 NSaved=   6.
 NSaved= 6 IEnMin= 6 EnMin= -465.530180109880     IErMin= 6 ErrMin= 3.03D-05
 ErrMax= 3.03D-05  0.00D+00 EMaxC= 1.00D+00 BMatC= 5.75D-08 BMatP= 6.77D-05
 IDIUse=1 WtCom= 1.00D+00 WtEn= 0.00D+00
 Coeff-Com: -0.104D-03-0.156D-04-0.129D-03-0.637D-02-0.175D-01 0.102D+01
 Coeff:     -0.104D-03-0.156D-04-0.129D-03-0.637D-02-0.175D-01 0.102D+01
 Gap=     0.090 Goal=   None    Shift=    0.000
 RMSDP=1.88D-05 MaxDP=2.66D-04 DE=-4.25D-05 OVMax= 6.30D-04

 Cycle   7  Pass 1  IDiag  1:
 Density matrix breaks symmetry, PCut= 1.00D-04
 Density has only Abelian symmetry.
 E= -465.530180337325     Delta-E=       -0.000000227445 Rises=F Damp=F
 DIIS: error= 1.61D-05 at cycle   7 NSaved=   7.
 NSaved= 7 IEnMin= 7 EnMin= -465.530180337325     IErMin= 7 ErrMin= 1.61D-05
 ErrMax= 1.61D-05  0.00D+00 EMaxC= 1.00D+00 BMatC= 5.12D-09 BMatP= 5.75D-08
 IDIUse=1 WtCom= 1.00D+00 WtEn= 0.00D+00
 Coeff-Com:  0.112D-04 0.248D-05-0.837D-03-0.356D-02-0.664D-02-0.229D-01
 Coeff-Com:  0.103D+01
 Coeff:      0.112D-04 0.248D-05-0.837D-03-0.356D-02-0.664D-02-0.229D-01
 Coeff:      0.103D+01
 Gap=     0.090 Goal=   None    Shift=    0.000
 RMSDP=1.54D-05 MaxDP=2.38D-04 DE=-2.27D-07 OVMax= 6.13D-04

 Cycle   8  Pass 1  IDiag  1:
 Density matrix breaks symmetry, PCut= 1.00D-04
 Density has only Abelian symmetry.
 E= -465.530180474044     Delta-E=       -0.000000136719 Rises=F Damp=F
 DIIS: error= 1.53D-05 at cycle   8 NSaved=   8.
 NSaved= 8 IEnMin= 8 EnMin= -465.530180474044     IErMin= 8 ErrMin= 1.53D-05
 ErrMax= 1.53D-05  0.00D+00 EMaxC= 1.00D+00 BMatC= 3.72D-09 BMatP= 5.12D-09
 IDIUse=1 WtCom= 1.00D+00 WtEn= 0.00D+00
 Coeff-Com: -0.188D-05 0.182D-05 0.263D-03 0.145D-02 0.287D-02-0.205D-01
 Coeff-Com: -0.587D+00 0.160D+01
 Coeff:     -0.188D-05 0.182D-05 0.263D-03 0.145D-02 0.287D-02-0.205D-01
 Coeff:     -0.587D+00 0.160D+01
 Gap=     0.090 Goal=   None    Shift=    0.000
 RMSDP=2.28D-05 MaxDP=3.58D-04 DE=-1.37D-07 OVMax= 9.32D-04

 Cycle   9  Pass 1  IDiag  1:
 Density matrix breaks symmetry, PCut= 1.00D-04
 Density has only Abelian symmetry.
 E= -465.530180665731     Delta-E=       -0.000000191687 Rises=F Damp=F
 DIIS: error= 1.46D-05 at cycle   9 NSaved=   9.
 NSaved= 9 IEnMin= 9 EnMin= -465.530180665731     IErMin= 9 ErrMin= 1.46D-05
 ErrMax= 1.46D-05  0.00D+00 EMaxC= 1.00D+00 BMatC= 3.32D-09 BMatP= 3.72D-09
 IDIUse=1 WtCom= 1.00D+00 WtEn= 0.00D+00
 Coeff-Com: -0.121D-05-0.190D-05-0.149D-03-0.610D-03-0.497D-03 0.512D-01
 Coeff-Com:  0.195D-01-0.212D+01 0.305D+01
 Coeff:     -0.121D-05-0.190D-05-0.149D-03-0.610D-03-0.497D-03 0.512D-01
 Coeff:      0.195D-01-0.212D+01 0.305D+01
 Gap=     0.090 Goal=   None    Shift=    0.000
 RMSDP=5.68D-05 MaxDP=8.93D-04 DE=-1.92D-07 OVMax= 2.33D-03

 Cycle  10  Pass 1  IDiag  1:
 Density matrix breaks symmetry, PCut= 1.00D-04
 Density has only Abelian symmetry.
 E= -465.530181103920     Delta-E=       -0.000000438189 Rises=F Damp=F
 DIIS: error= 1.30D-05 at cycle  10 NSaved=  10.
 NSaved=10 IEnMin=10 EnMin= -465.530181103920     IErMin=10 ErrMin= 1.30D-05
 ErrMax= 1.30D-05  0.00D+00 EMaxC= 1.00D+00 BMatC= 2.65D-09 BMatP= 3.32D-09
 IDIUse=1 WtCom= 1.00D+00 WtEn= 0.00D+00
 Large coefficients: NSaved= 10 BigCof=   18.79 CofMax=   10.00 Det=-5.03D-12
 Inversion failed.  Reducing to  9 matrices.
 Large coefficients: NSaved=  9 BigCof=   18.67 CofMax=   10.00 Det=-5.09D-12
 Inversion failed.  Reducing to  8 matrices.
 Large coefficients: NSaved=  8 BigCof=   18.62 CofMax=   10.00 Det=-5.10D-12
 Inversion failed.  Reducing to  7 matrices.
 Large coefficients: NSaved=  7 BigCof=   18.38 CofMax=   10.00 Det=-5.25D-12
 Inversion failed.  Reducing to  6 matrices.
 Large coefficients: NSaved=  6 BigCof=   18.35 CofMax=   10.00 Det=-5.25D-12
 Inversion failed.  Reducing to  5 matrices.
 Large coefficients: NSaved=  5 BigCof=   12.36 CofMax=   10.00 Det=-7.40D-12
 Inversion failed.  Reducing to  4 matrices.
 Coeff-Com: -0.280D+00 0.294D+01-0.706D+01 0.540D+01
 Coeff:     -0.280D+00 0.294D+01-0.706D+01 0.540D+01
 Gap=     0.090 Goal=   None    Shift=    0.000
 RMSDP=2.00D-04 MaxDP=3.13D-03 DE=-4.38D-07 OVMax= 8.21D-03

 Cycle  11  Pass 1  IDiag  1:
 Density matrix breaks symmetry, PCut= 1.00D-04
 Density has only Abelian symmetry.
 E= -465.530182223557     Delta-E=       -0.000001119637 Rises=F Damp=F
 DIIS: error= 7.05D-06 at cycle  11 NSaved=   5.
 NSaved= 5 IEnMin= 5 EnMin= -465.530182223557     IErMin= 5 ErrMin= 7.05D-06
 ErrMax= 7.05D-06  0.00D+00 EMaxC= 1.00D+00 BMatC= 1.66D-09 BMatP= 2.65D-09
 IDIUse=1 WtCom= 1.00D+00 WtEn= 0.00D+00
 Coeff-Com:  0.364D+00 0.311D+01-0.768D+01 0.408D+01 0.113D+01
 Coeff:      0.364D+00 0.311D+01-0.768D+01 0.408D+01 0.113D+01
 Gap=     0.090 Goal=   None    Shift=    0.000
 RMSDP=1.83D-04 MaxDP=2.84D-03 DE=-1.12D-06 OVMax= 7.50D-03

 Cycle  12  Pass 1  IDiag  1:
 Density matrix breaks symmetry, PCut= 1.00D-04
 Density has only Abelian symmetry.
 E= -465.530182667838     Delta-E=       -0.000000444281 Rises=F Damp=F
 DIIS: error= 2.30D-06 at cycle  12 NSaved=   6.
 NSaved= 6 IEnMin= 6 EnMin= -465.530182667838     IErMin= 6 ErrMin= 2.30D-06
 ErrMax= 2.30D-06  0.00D+00 EMaxC= 1.00D+00 BMatC= 2.67D-10 BMatP= 1.66D-09
 IDIUse=1 WtCom= 1.00D+00 WtEn= 0.00D+00
 Coeff-Com:  0.186D+00-0.473D+00 0.627D+00-0.660D+00 0.392D+00 0.927D+00
 Coeff:      0.186D+00-0.473D+00 0.627D+00-0.660D+00 0.392D+00 0.927D+00
 Gap=     0.090 Goal=   None    Shift=    0.000
 RMSDP=3.53D-05 MaxDP=5.46D-04 DE=-4.44D-07 OVMax= 1.45D-03

 Cycle  13  Pass 1  IDiag  1:
 Density matrix breaks symmetry, PCut= 1.00D-04
 Density has only Abelian symmetry.
 E= -465.530182689522     Delta-E=       -0.000000021684 Rises=F Damp=F
 DIIS: error= 6.08D-07 at cycle  13 NSaved=   7.
 NSaved= 7 IEnMin= 7 EnMin= -465.530182689522     IErMin= 7 ErrMin= 6.08D-07
 ErrMax= 6.08D-07  0.00D+00 EMaxC= 1.00D+00 BMatC= 1.40D-11 BMatP= 2.67D-10
 IDIUse=1 WtCom= 1.00D+00 WtEn= 0.00D+00
 Coeff-Com:  0.169D-01-0.473D-01-0.107D+00 0.157D+00-0.373D-01-0.307D+00
 Coeff-Com:  0.132D+01
 Coeff:      0.169D-01-0.473D-01-0.107D+00 0.157D+00-0.373D-01-0.307D+00
 Coeff:      0.132D+01
 Gap=     0.090 Goal=   None    Shift=    0.000
 RMSDP=1.88D-05 MaxDP=2.89D-04 DE=-2.17D-08 OVMax= 7.71D-04

 Cycle  14  Pass 1  IDiag  1:
 Density matrix breaks symmetry, PCut= 1.00D-04
 Density has only Abelian symmetry.
 E= -465.530182692481     Delta-E=       -0.000000002959 Rises=F Damp=F
 DIIS: error= 1.47D-07 at cycle  14 NSaved=   8.
 NSaved= 8 IEnMin= 8 EnMin= -465.530182692481     IErMin= 8 ErrMin= 1.47D-07
 ErrMax= 1.47D-07  0.00D+00 EMaxC= 1.00D+00 BMatC= 6.12D-13 BMatP= 1.40D-11
 IDIUse=1 WtCom= 1.00D+00 WtEn= 0.00D+00
 Coeff-Com:  0.220D-02-0.242D-01-0.829D-02 0.527D-01-0.278D-01-0.106D+00
 Coeff-Com:  0.251D+00 0.860D+00
 Coeff:      0.220D-02-0.242D-01-0.829D-02 0.527D-01-0.278D-01-0.106D+00
 Coeff:      0.251D+00 0.860D+00
 Gap=     0.090 Goal=   None    Shift=    0.000
 RMSDP=3.88D-08 MaxDP=3.67D-07 DE=-2.96D-09 OVMax= 6.56D-07

 Cycle  15  Pass 1  IDiag  1:
 Density matrix breaks symmetry, PCut= 1.00D-04
 Density has only Abelian symmetry.
 E= -465.530182692484     Delta-E=       -0.000000000002 Rises=F Damp=F
 DIIS: error= 1.95D-08 at cycle  15 NSaved=   9.
 NSaved= 9 IEnMin= 9 EnMin= -465.530182692484     IErMin= 9 ErrMin= 1.95D-08
 ErrMax= 1.95D-08  0.00D+00 EMaxC= 1.00D+00 BMatC= 3.59D-14 BMatP= 6.12D-13
 IDIUse=1 WtCom= 1.00D+00 WtEn= 0.00D+00
 Coeff-Com:  0.193D-02-0.312D-02-0.665D-02 0.145D-01-0.625D-02-0.150D-01
 Coeff-Com: -0.108D-01 0.343D+00 0.682D+00
 Coeff:      0.193D-02-0.312D-02-0.665D-02 0.145D-01-0.625D-02-0.150D-01
 Coeff:     -0.108D-01 0.343D+00 0.682D+00
 Gap=     0.090 Goal=   None    Shift=    0.000
 RMSDP=4.57D-08 MaxDP=7.03D-07 DE=-2.39D-12 OVMax= 1.87D-06

 Cycle  16  Pass 1  IDiag  1:
 Density matrix breaks symmetry, PCut= 1.00D-04
 Density has only Abelian symmetry.
 E= -465.530182692482     Delta-E=        0.000000000002 Rises=F Damp=F
 DIIS: error= 1.08D-08 at cycle  16 NSaved=  10.
 NSaved=10 IEnMin= 9 EnMin= -465.530182692484     IErMin=10 ErrMin= 1.08D-08
 ErrMax= 1.08D-08  0.00D+00 EMaxC= 1.00D+00 BMatC= 2.57D-15 BMatP= 3.59D-14
 IDIUse=1 WtCom= 1.00D+00 WtEn= 0.00D+00
 Coeff-Com: -0.402D-03 0.693D-03 0.227D-02-0.342D-02 0.714D-03 0.496D-02
 Coeff-Com: -0.109D-01 0.253D-01-0.208D-01 0.100D+01
 Coeff:     -0.402D-03 0.693D-03 0.227D-02-0.342D-02 0.714D-03 0.496D-02
 Coeff:     -0.109D-01 0.253D-01-0.208D-01 0.100D+01
 Gap=     0.090 Goal=   None    Shift=    0.000
 RMSDP=3.40D-09 MaxDP=2.98D-08 DE= 1.59D-12 OVMax= 8.90D-08

 Density matrix breaks symmetry, PCut= 1.00D-04
 Density has only Abelian symmetry.
 SCF Done:  E(RPBE1PBE) =  -465.530182692     A.U. after   16 cycles
            NFock= 16  Conv=0.34D-08     -V/T= 2.1081
 KE= 4.201033554686D+02 PE=-1.928090606767D+03 EE= 6.336545620202D+02
 Leave Link  502 at Sat Oct 18 14:05:27 2025, MaxMem=  4294967296 cpu:               2.9 elap:               0.4
 (Enter /opt/modules/software/gaussian/G16-C01/l508.exe)
 QCSCF skips out because SCF is already converged.
 Leave Link  508 at Sat Oct 18 14:05:27 2025, MaxMem=  4294967296 cpu:               0.0 elap:               0.0
 (Enter /opt/modules/software/gaussian/G16-C01/l108.exe)
 Variable Step   Value    
 -------- ---- -----------
     1       2    2.078699
 Leave Link  108 at Sat Oct 18 14:05:27 2025, MaxMem=  4294967296 cpu:               0.0 elap:               0.0
 (Enter /opt/modules/software/gaussian/G16-C01/l202.exe)
 ---------------------------------------------------------------------------------------------------
                            Z-MATRIX (ANGSTROMS AND DEGREES)
   CD    Cent   Atom    N1       Length/X        N2       Alpha/Y        N3        Beta/Z          J
 ---------------------------------------------------------------------------------------------------
      1      1  Ni
      2      2  O        1   1.100000(     1)
      3      3  O        1   1.100000(     2)      2  109.471(     5)
      4      4  O        1   1.100000(     3)      3  109.471(     6)      2 -120.000(     8)      0
      5      5  O        1   1.100000(     4)      4  109.471(     7)      3  120.000(     9)      0
 ---------------------------------------------------------------------------------------------------
                         Z-Matrix orientation:                         
 ---------------------------------------------------------------------
 Center     Atomic      Atomic             Coordinates (Angstroms)
 Number     Number       Type             X           Y           Z
 ---------------------------------------------------------------------
      1         28           0        0.000000    0.000000    0.000000
      2          8           0        0.000000    0.000000    1.100000
      3          8           0        1.037090    0.000000   -0.366667
      4          8           0       -0.518545   -0.898146   -0.366667
      5          8           0       -0.518545    0.898146   -0.366667
 ---------------------------------------------------------------------
                    Distance matrix (angstroms):
                    1          2          3          4          5
     1  Ni   0.000000
     2  O    1.100000   0.000000
     3  O    1.100000   1.796292   0.000000
     4  O    1.100000   1.796292   1.796292   0.000000
     5  O    1.100000   1.796292   1.796292   1.796292   0.000000
 Stoichiometry    NiO4
 Framework group  TD[O(Ni),4C3(O)]
 Deg. of freedom     1
 Full point group                 TD      NOp  24
 RotChk:  IX=0 Diff= 1.21D-15
 Largest Abelian subgroup         D2      NOp   4
 Largest concise Abelian subgroup D2      NOp   4
                         Standard orientation:                         
 ---------------------------------------------------------------------
 Center     Atomic      Atomic             Coordinates (Angstroms)
 Number     Number       Type             X           Y           Z
 ---------------------------------------------------------------------
      1         28           0        0.000000    0.000000    0.000000
      2          8           0        0.635085    0.635085    0.635085
      3          8           0       -0.635085   -0.635085    0.635085
      4          8           0       -0.635085    0.635085   -0.635085
      5          8           0        0.635085   -0.635085   -0.635085
 ---------------------------------------------------------------------
 Rotational constants (GHZ):           9.7922202           9.7922202           9.7922202
 Leave Link  202 at Sat Oct 18 14:05:27 2025, MaxMem=  4294967296 cpu:               0.0 elap:               0.0
 (Enter /opt/modules/software/gaussian/G16-C01/l301.exe)
 Basis read from rwf:  (5D, 7F)
 Pseudo-potential data read from rwf file.
 There are    18 symmetry adapted cartesian basis functions of A   symmetry.
 There are    14 symmetry adapted cartesian basis functions of B1  symmetry.
 There are    14 symmetry adapted cartesian basis functions of B2  symmetry.
 There are    14 symmetry adapted cartesian basis functions of B3  symmetry.
 There are    16 symmetry adapted basis functions of A   symmetry.
 There are    14 symmetry adapted basis functions of B1  symmetry.
 There are    14 symmetry adapted basis functions of B2  symmetry.
 There are    14 symmetry adapted basis functions of B3  symmetry.
    58 basis functions,   152 primitive gaussians,    60 cartesian basis functions
    25 alpha electrons       25 beta electrons
       nuclear repulsion energy       390.2205744683 Hartrees.
 IExCor= 1009 DFT=T Ex+Corr=PBE1PBE ExCW=0 ScaHFX=  0.250000
 ScaDFX=  0.750000  0.750000  1.000000  1.000000 ScalE2=  1.000000  1.000000
 IRadAn=      5 IRanWt=     -1 IRanGd=            0 ICorTp=0 IEmpDi=  4
 NAtoms=    5 NActive=    5 NUniq=    2 SFac= 4.00D+00 NAtFMM=   60 NAOKFM=F Big=F
 Integral buffers will be    131072 words long.
 Raffenetti 2 integral format.
 Two-electron integral symmetry is turned on.
 No density basis found on file    724.
 Leave Link  301 at Sat Oct 18 14:05:27 2025, MaxMem=  4294967296 cpu:               0.2 elap:               0.0
 (Enter /opt/modules/software/gaussian/G16-C01/l302.exe)
 NPDir=0 NMtPBC=     1 NCelOv=     1 NCel=       1 NClECP=     1 NCelD=      1
         NCelK=      1 NCelE2=     1 NClLst=     1 CellRange=     0.0.
 One-electron integrals computed using PRISM.
 One-electron integral symmetry used in STVInt
  24 Symmetry operations used in ECPInt.
 ECPInt:  NShTT=     406 NPrTT=    3130 LenC2=     407 LenP2D=    2654.
 LDataN:  DoStor=T MaxTD1= 4 Len=   56
 NBasis=    58 RedAO= T EigKep=  1.35D-02  NBF=    16    14    14    14
 NBsUse=    58 1.00D-06 EigRej= -1.00D+00 NBFU=    16    14    14    14
 Precomputing XC quadrature grid using
 IXCGrd= 4 IRadAn=           5 IRanWt=          -1 IRanGd=           0 AccXCQ= 0.00D+00.
 Generated NRdTot=       0 NPtTot=           0 NUsed=           0 NTot=          32
 NSgBfM=    60    60    60    60    60 MxSgAt=     5 MxSgA2=     5.
 Leave Link  302 at Sat Oct 18 14:05:27 2025, MaxMem=  4294967296 cpu:               0.6 elap:               0.1
 (Enter /opt/modules/software/gaussian/G16-C01/l303.exe)
 DipDrv:  MaxL=1.
 Leave Link  303 at Sat Oct 18 14:05:27 2025, MaxMem=  4294967296 cpu:               0.1 elap:               0.0
 (Enter /opt/modules/software/gaussian/G16-C01/l401.exe)
 Initial guess from the checkpoint file:  "/home/futera/Documents/2025-nife2o4-params/bond-parameters/pbe0-lanl2dz/Gau-3729693.chk"
 B after Tr=     0.000000    0.000000    0.000000
         Rot=    1.000000    0.000000    0.000000    0.000000 Ang=   0.00 deg.
 Guess basis will be translated and rotated to current coordinates.
 JPrj=2 DoOrth=T DoCkMO=T.
 Initial guess orbital symmetries:
       Occupied  (A1) (T2) (T2) (T2) (?A) (T2) (T2) (T2) (?B) (?B)
                 (?B) (?A) (?A) (?A) (?B) (?B) (?B) (?B) (?B) (?B)
                 (?B) (?B) (?B) (?A) (?A)
       Virtual   (?A) (?B) (?B) (?B) (A1) (?B) (?B) (?B) (?B) (?B)
                 (?B) (?A) (?A) (?C) (?C) (?C) (?A) (?C) (?C) (?C)
                 (?C) (?C) (?C) (T2) (T2) (T2) (?A) (?A) (?A) (T2)
                 (T2) (T2) (A1)
 Generating alternative initial guess.
 ExpMin= 2.40D-02 ExpMax= 7.82D+03 ExpMxC= 2.73D+02 IAcc=3 IRadAn=         5 AccDes= 0.00D+00
 Harris functional with IExCor= 1009 and IRadAn=       5 diagonalized for initial guess.
 HarFok:  IExCor= 1009 AccDes= 0.00D+00 IRadAn=         5 IDoV= 1 UseB2=F ITyADJ=14
 ICtDFT=  3500011 ScaDFX=  1.000000  1.000000  1.000000  1.000000
 FoFCou: FMM=F IPFlag=           0 FMFlag=      100000 FMFlg1=           0
         NFxFlg=           0 DoJE=T BraDBF=F KetDBF=T FulRan=T
         wScrn=  0.000000 ICntrl=       500 IOpCl=  0 I1Cent=   200000004 NGrid=           0
         NMat0=    1 NMatS0=      1 NMatT0=    0 NMatD0=    1 NMtDS0=    0 NMtDT0=    0
 Petite list used in FoFCou.
 Harris En= -467.390088021471    
 Leave Link  401 at Sat Oct 18 14:05:27 2025, MaxMem=  4294967296 cpu:               0.8 elap:               0.1
 (Enter /opt/modules/software/gaussian/G16-C01/l502.exe)
 Keep R1 ints in memory in symmetry-blocked form, NReq=8551516.
 FoFCou: FMM=F IPFlag=           0 FMFlag=           0 FMFlg1=           0
         NFxFlg=           0 DoJE=F BraDBF=F KetDBF=F FulRan=T
         wScrn=  0.000000 ICntrl=       600 IOpCl=  0 I1Cent=           0 NGrid=           0
         NMat0=    1 NMatS0=   1711 NMatT0=    0 NMatD0=    1 NMtDS0=    0 NMtDT0=    0
 Petite list used in FoFCou.
 Closed shell SCF:
 Using DIIS extrapolation, IDIIS=  1040.
 NGot=  4294967296 LenX=  4294585980 LenY=  4294581939
 Requested convergence on RMS density matrix=1.00D-08 within  20 cycles.
 Requested convergence on MAX density matrix=1.00D-06.
 Requested convergence on             energy=1.00D-06.
 No special actions if energy rises.

 Cycle   1  Pass 1  IDiag  1:
 Density matrix breaks symmetry, PCut= 1.00D-04
 Density has only Abelian symmetry.
 E= -466.515576312646    
 DIIS: error= 7.53D-02 at cycle   1 NSaved=   1.
 NSaved= 1 IEnMin= 1 EnMin= -466.515576312646     IErMin= 1 ErrMin= 7.53D-02
 ErrMax= 7.53D-02  0.00D+00 EMaxC= 1.00D-01 BMatC= 7.21D-02 BMatP= 7.21D-02
 IDIUse=3 WtCom= 2.47D-01 WtEn= 7.53D-01
 Coeff-Com:  0.100D+01
 Coeff-En:   0.100D+01
 Coeff:      0.100D+01
 Recover alternate guess density for next cycle.
 RMSDP=2.92D-02 MaxDP=5.95D-01              OVMax= 0.00D+00

 Cycle   2  Pass 1  IDiag  1:
 Density matrix breaks symmetry, PCut= 1.00D-04
 Density has only Abelian symmetry.
 E= -465.014730799513     Delta-E=        1.500845513133 Rises=F Damp=F
 Switch densities from cycles 1 and 2 for lowest energy.
 DIIS: error= 2.67D-01 at cycle   2 NSaved=   2.
 NSaved= 2 IEnMin= 1 EnMin= -466.515576312646     IErMin= 1 ErrMin= 7.53D-02
 ErrMax= 2.67D-01  0.00D+00 EMaxC= 1.00D+00 BMatC= 2.73D+00 BMatP= 7.21D-02
 IDIUse=1 WtCom= 1.00D+00 WtEn= 0.00D+00
[...]

 Cycle  13  Pass 1  IDiag  1:
 Density matrix breaks symmetry, PCut= 1.00D-04
 Density has only Abelian symmetry.
 E= -468.716965384718     Delta-E=       -0.000000000001 Rises=F Damp=F
 DIIS: error= 8.93D-09 at cycle  13 NSaved=  13.
 NSaved=13 IEnMin=13 EnMin= -468.716965384718     IErMin=13 ErrMin= 8.93D-09
 ErrMax= 8.93D-09  0.00D+00 EMaxC= 1.00D-01 BMatC= 1.71D-15 BMatP= 1.76D-15
 IDIUse=1 WtCom= 1.00D+00 WtEn= 0.00D+00
 Large coefficients: NSaved= 13 BigCof=   17.20 CofMax=   10.00 Det=-2.04D-19
 Inversion failed.  Reducing to 12 matrices.
 Large coefficients: NSaved= 12 BigCof=   16.44 CofMax=   10.00 Det=-2.25D-19
 Inversion failed.  Reducing to 11 matrices.
 Large coefficients: NSaved= 11 BigCof=   16.29 CofMax=   10.00 Det=-2.64D-19
 Inversion failed.  Reducing to 10 matrices.
 Large coefficients: NSaved= 10 BigCof=   15.04 CofMax=   10.00 Det=-3.79D-19
 Inversion failed.  Reducing to  9 matrices.
 Large coefficients: NSaved=  9 BigCof=   11.25 CofMax=   10.00 Det=-4.27D-19
 Inversion failed.  Reducing to  8 matrices.
 Large coefficients: NSaved=  8 BigCof=   11.07 CofMax=   10.00 Det=-4.69D-19
 Inversion failed.  Reducing to  7 matrices.
 Large coefficients: NSaved=  7 BigCof=   11.10 CofMax=   10.00 Det=-6.09D-19
 Inversion failed.  Reducing to  6 matrices.
 Large coefficients: NSaved=  6 BigCof=   11.01 CofMax=   10.00 Det=-6.81D-19
 Inversion failed.  Reducing to  5 matrices.
 Large coefficients: NSaved=  5 BigCof=   10.44 CofMax=   10.00 Det=-7.03D-19
 Inversion failed.  Reducing to  4 matrices.
 Coeff-Com:  0.120D+00-0.756D+00-0.786D+01 0.950D+01
 Coeff:      0.120D+00-0.756D+00-0.786D+01 0.950D+01
 Gap=     0.012 Goal=   None    Shift=    0.000
 RMSDP=3.45D-07 MaxDP=5.23D-06 DE=-1.36D-12 OVMax= 1.01D-05

 Cycle  14  Pass 1  IDiag  1:
 Density matrix breaks symmetry, PCut= 1.00D-04
 Density has only Abelian symmetry.
 E= -468.716965384721     Delta-E=       -0.000000000003 Rises=F Damp=F
 DIIS: error= 2.65D-08 at cycle  14 NSaved=   5.
 NSaved= 5 IEnMin= 5 EnMin= -468.716965384721     IErMin= 4 ErrMin= 8.93D-09
 ErrMax= 2.65D-08  0.00D+00 EMaxC= 1.00D-01 BMatC= 1.23D-14 BMatP= 1.71D-15
 IDIUse=1 WtCom= 1.00D+00 WtEn= 0.00D+00
 Large coefficients: NSaved=  5 BigCof=   25.73 CofMax=   10.00 Det=-5.24D-19
 Inversion failed.  Reducing to  4 matrices.
 Coeff-Com: -0.626D+01-0.342D+01 0.880D+01 0.188D+01
 Coeff:     -0.626D+01-0.342D+01 0.880D+01 0.188D+01
 Gap=     0.012 Goal=   None    Shift=    0.000
 RMSDP=7.54D-07 MaxDP=1.15D-05 DE=-3.07D-12 OVMax= 2.22D-05

 Cycle  15  Pass 1  IDiag  1:
 Density matrix breaks symmetry, PCut= 1.00D-04
 Density has only Abelian symmetry.
 E= -468.716965384727     Delta-E=       -0.000000000006 Rises=F Damp=F
 DIIS: error= 1.42D-08 at cycle  15 NSaved=   5.
 NSaved= 5 IEnMin= 5 EnMin= -468.716965384727     IErMin= 3 ErrMin= 8.93D-09
 ErrMax= 1.42D-08  0.00D+00 EMaxC= 1.00D-01 BMatC= 4.53D-15 BMatP= 1.71D-15
 IDIUse=1 WtCom= 1.00D+00 WtEn= 0.00D+00
 Coeff-Com:  0.335D+01-0.133D+01-0.582D+01 0.940D+00 0.386D+01
 Coeff:      0.335D+01-0.133D+01-0.582D+01 0.940D+00 0.386D+01
 Gap=     0.012 Goal=   None    Shift=    0.000
 RMSDP=3.35D-06 MaxDP=5.09D-05 DE=-5.97D-12 OVMax= 9.86D-05

 Cycle  16  Pass 1  IDiag  1:
 Density matrix breaks symmetry, PCut= 1.00D-04
 Density has only Abelian symmetry.
 E= -468.716965384749     Delta-E=       -0.000000000021 Rises=F Damp=F
 DIIS: error= 3.54D-08 at cycle  16 NSaved=   6.
 NSaved= 6 IEnMin= 6 EnMin= -468.716965384749     IErMin= 3 ErrMin= 8.93D-09
 ErrMax= 3.54D-08  0.00D+00 EMaxC= 1.00D-01 BMatC= 1.98D-14 BMatP= 1.71D-15
 IDIUse=1 WtCom= 1.00D+00 WtEn= 0.00D+00
 Large coefficients: NSaved=  6 BigCof=   12.43 CofMax=   10.00 Det=-7.05D-19
 Inversion failed.  Reducing to  5 matrices.
 Coeff-Com:  0.872D+01-0.914D+01-0.299D+01 0.310D+01 0.131D+01
 Coeff:      0.872D+01-0.914D+01-0.299D+01 0.310D+01 0.131D+01
 Gap=     0.012 Goal=   None    Shift=    0.000
 RMSDP=3.32D-06 MaxDP=5.04D-05 DE=-2.14D-11 OVMax= 9.76D-05

 Cycle  17  Pass 1  IDiag  1:
 Density matrix breaks symmetry, PCut= 1.00D-04
 Density has only Abelian symmetry.
 E= -468.716965384757     Delta-E=       -0.000000000008 Rises=F Damp=F
 DIIS: error= 2.25D-08 at cycle  17 NSaved=   6.
 NSaved= 6 IEnMin= 6 EnMin= -468.716965384757     IErMin= 2 ErrMin= 8.93D-09
 ErrMax= 2.25D-08  0.00D+00 EMaxC= 1.00D-01 BMatC= 8.65D-15 BMatP= 1.71D-15
 IDIUse=1 WtCom= 1.00D+00 WtEn= 0.00D+00
 Coeff-Com:  0.187D+01-0.108D+01-0.145D+01 0.543D+00 0.244D+00 0.870D+00
 Coeff:      0.187D+01-0.108D+01-0.145D+01 0.543D+00 0.244D+00 0.870D+00
 Gap=     0.012 Goal=   None    Shift=    0.000
 RMSDP=7.73D-08 MaxDP=1.17D-06 DE=-8.30D-12 OVMax= 2.27D-06

 Cycle  18  Pass 1  IDiag  1:
 Density matrix breaks symmetry, PCut= 1.00D-04
 Density has only Abelian symmetry.
 E= -468.716965384758     Delta-E=       -0.000000000001 Rises=F Damp=F
 DIIS: error= 3.97D-08 at cycle  18 NSaved=   7.
 NSaved= 7 IEnMin= 7 EnMin= -468.716965384758     IErMin= 2 ErrMin= 8.93D-09
 ErrMax= 3.97D-08  0.00D+00 EMaxC= 1.00D-01 BMatC= 2.60D-14 BMatP= 1.71D-15
 IDIUse=1 WtCom= 1.00D+00 WtEn= 0.00D+00
 Large coefficients: NSaved=  7 BigCof=   14.09 CofMax=   10.00 Det=-1.65D-19
 Inversion failed.  Reducing to  6 matrices.
 Coeff-Com:  0.562D+00-0.137D+00-0.423D+00-0.269D+00 0.259D+01-0.132D+01
 Coeff:      0.562D+00-0.137D+00-0.423D+00-0.269D+00 0.259D+01-0.132D+01
 Gap=     0.012 Goal=   None    Shift=    0.000
 RMSDP=1.87D-07 MaxDP=2.83D-06 DE=-7.39D-13 OVMax= 5.49D-06

 Cycle  19  Pass 1  IDiag  1:
 Density matrix breaks symmetry, PCut= 1.00D-04
 Density has only Abelian symmetry.
 E= -468.716965384757     Delta-E=        0.000000000001 Rises=F Damp=F
 DIIS: error= 4.89D-08 at cycle  19 NSaved=   7.
 NSaved= 7 IEnMin= 6 EnMin= -468.716965384758     IErMin= 1 ErrMin= 8.93D-09
 ErrMax= 4.89D-08  0.00D+00 EMaxC= 1.00D-01 BMatC= 3.91D-14 BMatP= 1.71D-15
 IDIUse=1 WtCom= 1.00D+00 WtEn= 0.00D+00
 Coeff-Com:  0.427D+00-0.292D+00-0.195D+00-0.660D-01 0.345D+01-0.459D+01
 Coeff-Com:  0.226D+01
 Coeff:      0.427D+00-0.292D+00-0.195D+00-0.660D-01 0.345D+01-0.459D+01
 Coeff:      0.226D+01
 Gap=     0.012 Goal=   None    Shift=    0.000
 RMSDP=3.51D-07 MaxDP=5.34D-06 DE= 5.12D-13 OVMax= 1.03D-05

 Cycle  20  Pass 1  IDiag  1:
 Density matrix breaks symmetry, PCut= 1.00D-04
 Density has only Abelian symmetry.
 E= -468.716965384757     Delta-E=        0.000000000000 Rises=F Damp=F
 DIIS: error= 3.92D-08 at cycle  20 NSaved=   8.
 NSaved= 8 IEnMin= 6 EnMin= -468.716965384758     IErMin= 1 ErrMin= 8.93D-09
 ErrMax= 3.92D-08  0.00D+00 EMaxC= 1.00D-01 BMatC= 2.45D-14 BMatP= 1.71D-15
 IDIUse=1 WtCom= 1.00D+00 WtEn= 0.00D+00
 Coeff-Com:  0.883D+00-0.103D+01 0.199D+00-0.119D+00-0.587D+00 0.159D+01
 Coeff-Com: -0.192D+01 0.198D+01
 Coeff:      0.883D+00-0.103D+01 0.199D+00-0.119D+00-0.587D+00 0.159D+01
 Coeff:     -0.192D+01 0.198D+01
 Gap=     0.012 Goal=   None    Shift=    0.000
 RMSDP=8.00D-08 MaxDP=1.23D-06 DE= 3.98D-13 OVMax= 2.35D-06

 >>>>>>>>>> Convergence criterion not met.
 SCF Done:  E(RPBE1PBE) =  -468.716965385     A.U. after   21 cycles
            NFock= 20  Conv=0.80D-07     -V/T= 2.1531
 KE= 4.065000216412D+02 PE=-1.209231124706D+03 EE= 2.910898744886D+02
 Leave Link  502 at Sat Oct 18 14:07:06 2025, MaxMem=  4294967296 cpu:               2.2 elap:               0.3
 (Enter /opt/modules/software/gaussian/G16-C01/l508.exe)
 Keep R1 ints in memory in symmetry-blocked form, NReq=8551916.
 FoFCou: FMM=F IPFlag=           0 FMFlag=           0 FMFlg1=           0
         NFxFlg=           0 DoJE=F BraDBF=F KetDBF=F FulRan=T
         wScrn=  0.000000 ICntrl=       600 IOpCl=  0 I1Cent=           0 NGrid=           0
         NMat0=    1 NMatS0=   1711 NMatT0=    0 NMatD0=    1 NMtDS0=    0 NMtDT0=    0
 Petite list used in FoFCou.
 Tight linear equation convergence will be used.
 RPBE1PBE wavefunction.
 Quadratic Convergence SCF Method.
 Line search only if initial step raises energy.
 Density matrix breaks symmetry, PCut= 1.00D-04
 Density has only Abelian symmetry.
 Iteration   1 EE= -468.716965384757                                    Grad=1.528D-09 Max rot=    0.0000 deg.
 Rotation gradient small -- convergence achieved.
 Orbital symmetries in SymMO:
    1=1    2=4    3=3    4=2    5=1    6=3    7=2    8=4    9=1   10=4
   11=3   12=2   13=4   14=3   15=2   16=1   17=3   18=2   19=4   20=1
   21=1   22=2   23=3   24=1   25=4   26=1   27=2   28=3   29=4   30=1
   31=2   32=3   33=4   34=2   35=3   36=4   37=1   38=1   39=3   40=2
   41=4   42=1   43=2   44=3   45=4   46=4   47=1   48=2   49=3   50=1
   51=4   52=2   53=3   54=1   55=1   56=4   57=2   58=3
 SCF Done:  E(RPBE1PBE) =  -468.716965385     a.u. after    1 cycles
            Convg  =    0.1528D-08                     1 Fock formations.
              S**2 =  0.0000                  -V/T =  2.1531
 Density matrix breaks symmetry, PCut= 1.00D-04
 Density has only Abelian symmetry.
 Leave Link  508 at Sat Oct 18 14:07:06 2025, MaxMem=  4294967296 cpu:               0.9 elap:               0.1
 (Enter /opt/modules/software/gaussian/G16-C01/l108.exe)
 Scan completed.
 
 Summary of the potential surface scan:
   N       r          SCF    
 ----  ---------  -----------
    1     1.0000   -464.21985
    2     1.0500   -465.53018
    3     1.1000   -466.53526
    4     1.1500   -467.30101
    5     1.2000   -467.87971
    6     1.2500   -468.31271
    7     1.3000   -468.63266
    8     1.3500   -468.86529
    9     1.4000   -469.03083
   10     1.4500   -469.14514
   11     1.5000   -469.22059
   12     1.5500   -469.26676
   13     1.6000   -469.29102
   14     1.6500   -469.29903
   15     1.7000   -469.29509
   16     1.7500   -469.28247
   17     1.8000   -469.26368
   18     1.8500   -469.24061
   19     1.9000   -469.21472
   20     1.9500   -469.18718
   21     2.0000   -469.15889
   22     2.0500   -469.13065
   23     2.1000   -469.10332
   24     2.1500   -469.07829
   25     2.2000   -469.05582
   26     2.2500   -469.03533
   27     2.3000   -469.01640
   28     2.3500   -468.99875
   29     2.4000   -468.98216
   30     2.4500   -468.96650
   31     2.5000   -468.95172
   32     2.5500   -468.93778
   33     2.6000   -468.92467
   34     2.6500   -468.91235
   35     2.7000   -468.90081
   36     2.7500   -468.89002
   37     2.8000   -468.87996
   38     2.8500   -468.87057
   39     2.9000   -468.86180
   40     2.9500   -468.85363
   41     3.0000   -468.84601
   42     3.0500   -468.83892
   43     3.1000   -468.83229
   44     3.1500   -468.82611
   45     3.2000   -468.82033
   46     3.2500   -468.81493
   47     3.3000   -468.80990
   48     3.3500   -468.80519
   49     3.4000   -468.80079
   50     3.4500   -468.79667
   51     3.5000   -468.79280
   52     3.5500   -468.78919
   53     3.6000   -468.78580
   54     3.6500   -468.78263
   55     3.7000   -468.77966
   56     3.7500   -468.77687
   57     3.8000   -468.77425
   58     3.8500   -468.77178
   59     3.9000   -468.76946
   60     3.9500   -468.76729
   61     4.0000   -468.76525
   62     4.0500   -468.76333
   63     4.1000   -468.76153
   64     4.1500   -468.75983
   65     4.2000   -468.75823
   66     4.2500   -468.75672
   67     4.3000   -468.75530
   68     4.3500   -468.75396
   69     4.4000   -468.75270
   70     4.4500   -468.75151
   71     4.5000   -468.75038
   72     4.5500   -468.74931
   73     4.6000   -468.74830
   74     4.6500   -468.74735
   75     4.7000   -468.74643
   76     4.7500   -468.74556
   77     4.8000   -468.74473
   78     4.8500   -468.74394
   79     4.9000   -468.74318
   80     4.9500   -468.74246
   81     5.0000   -468.74176
   82     5.0500   -468.74109
   83     5.1000   -468.74045
   84     5.1500   -468.73983
   85     5.2000   -468.73923
   86     5.2500   -468.73865
   87     5.3000   -468.73808
   88     5.3500   -468.73754
   89     5.4000   -468.73701
   90     5.4500   -468.73650
   91     5.5000   -468.73600
   92     5.5500   -468.73552
   93     5.6000   -468.73505
   94     5.6500   -468.73459
   95     5.7000   -468.73414
   96     5.7500   -468.73371
   97     5.8000   -468.73328
   98     5.8500   -468.73286
   99     5.9000   -468.73246
  100     5.9500   -468.73206
  101     6.0000   -468.73168
  102     6.0500   -468.73130
  103     6.1000   -468.73094
  104     6.1500   -468.73058
  105     6.2000   -468.73023
  106     6.2500   -468.72989
  107     6.3000   -468.72955
  108     6.3500   -468.72922
  109     6.4000   -468.72890
  110     6.4500   -468.72859
  111     6.5000   -468.72829
  112     6.5500   -468.72799
  113     6.6000   -468.72770
  114     6.6500   -468.72741
  115     6.7000   -468.72713
  116     6.7500   -468.72686
  117     6.8000   -468.72660
  118     6.8500   -468.72634
  119     6.9000   -468.72608
  120     6.9500   -468.72583
  121     7.0000   -468.72559
  122     7.0500   -468.72535
  123     7.1000   -468.72512
  124     7.1500   -468.72489
  125     7.2000   -468.72467
  126     7.2500   -468.72445
  127     7.3000   -468.72423
  128     7.3500   -468.72403
  129     7.4000   -468.72382
  130     7.4500   -468.72362
  131     7.5000   -468.72343
  132     7.5500   -468.72323
  133     7.6000   -468.72305
  134     7.6500   -468.72286
  135     7.7000   -468.72268
  136     7.7500   -468.72250
  137     7.8000   -468.72233
  138     7.8500   -468.72216
  139     7.9000   -468.72199
  140     7.9500   -468.72183
  141     8.0000   -468.72167
  142     8.0500   -468.72151
  143     8.1000   -468.72135
  144     8.1500   -468.72120
  145     8.2000   -468.72105
  146     8.2500   -468.72090
  147     8.3000   -468.72076
  148     8.3500   -468.72062
  149     8.4000   -468.72048
  150     8.4500   -468.72034
  151     8.5000   -468.72021
  152     8.5500   -468.72007
  153     8.6000   -468.71994
  154     8.6500   -468.71981
  155     8.7000   -468.71969
  156     8.7500   -468.71956
  157     8.8000   -468.71944
  158     8.8500   -468.71932
  159     8.9000   -468.71920
  160     8.9500   -468.71908
  161     9.0000   -468.71897
  162     9.0500   -468.71885
  163     9.1000   -468.71874
  164     9.1500   -468.71863
  165     9.2000   -468.71852
  166     9.2500   -468.71841
  167     9.3000   -468.71831
  168     9.3500   -468.71820
  169     9.4000   -468.71810
  170     9.4500   -468.71800
  171     9.5000   -468.71790
  172     9.5500   -468.71780
  173     9.6000   -468.71770
  174     9.6500   -468.71761
  175     9.7000   -468.71751
  176     9.7500   -468.71742
  177     9.8000   -468.71732
  178     9.8500   -468.71723
  179     9.9000   -468.71714
  180     9.9500   -468.71705
  181    10.0000   -468.71697
 ----  ---------  -----------
  
 Leave Link  108 at Sat Oct 18 14:07:06 2025, MaxMem=  4294967296 cpu:               0.0 elap:               0.0
 (Enter /opt/modules/software/gaussian/G16-C01/l9999.exe)
 Unable to Open any file for archive entry.
 1\1\GINC-PRCC02008\Scan\RPBE1PBE\GenECP\Ni1O4\FUTERA\18-Oct-2025\1\\#p
  PBE1PBE/GenECP SCF(Tight,XQC,MaxCycle=500,MaxConventional=20) Scan\\N
 ickel ferrate (PBE0/LANL2DZ)\\0,1\Ni\O,1,r\O,1,r,2,109.47122063\O,1,r,
 3,109.47122063,2,-120.,0\O,1,r,4,109.47122063,3,120.,0\\r=1.,s,180,0.0
 5\\Version=ES64L-G16RevC.01\HF=-464.2198532,-465.5301827,-466.535261,-
 467.3010126,-467.8797148,-468.3127147,-468.6326601,-468.8652855,-469.0
 308268,-469.1451417,-469.2205917,-469.2667589,-469.2910209,-469.299026
 9,-469.2950862,-469.2824723,-469.2636773,-469.2406057,-469.2147231,-46
 9.1871801,-469.158894,-469.1306462,-469.1033187,-469.0782865,-469.0558
 229,-469.035329,-469.0163997,-468.9987464,-468.9821581,-468.9665031,-4
 68.95172,-468.9377842,-468.9246722,-468.9123543,-468.9008096,-468.8900
 211,-468.8799566,-468.8705672,-468.8618044,-468.853631,-468.8460146,-4
 68.8389166,-468.8322944,-468.8261091,-468.8203304,-468.8149345,-468.80
 9897,-468.8051906,-468.8007881,-468.7966654,-468.7928035,-468.7891874,
 -468.7858022,-468.7826316,-468.7796591,-468.7768686,-468.774246,-468.7
 717803,-468.7694645,-468.767291,-468.7652502,-468.7633317,-468.761526,
 -468.7598255,-468.7582257,-468.7567201,-468.7553011,-468.7539626,-468.
 752699,-468.7515057,-468.7503783,-468.7493132,-468.7483045,-468.747345
 9,-468.7464339,-468.7455642,-468.7447337,-468.7439402,-468.743182,-468
 .7424567,-468.7417615,-468.7410935,-468.7404503,-468.7398292,-468.7392
 284,-468.7386467,-468.7380833,-468.7375378,-468.7370094,-468.7364973,-
 468.7360004,-468.7355175,-468.7350474,-468.7345893,-468.7341423,-468.7
 33706,-468.7332802,-468.7328649,-468.7324598,-468.7320648,-468.7316797
 ,-468.7313041,-468.7309375,-468.7305794,-468.7302292,-468.7298867,-468
 .7295517,-468.7292241,-468.728904,-468.7285913,-468.7282859,-468.72798
 78,-468.7276966,-468.7274122,-468.7271343,-468.7268625,-468.7265966,-4
 68.7263363,-468.7260815,-468.7258322,-468.7255883,-468.7253498,-468.72
 51167,-468.7248888,-468.724666,-468.7244481,-468.7242349,-468.7240263,
 -468.723822,-468.7236218,-468.7234257,-468.7232336,-468.7230453,-468.7
 228606,-468.7226796,-468.7225022,-468.7223282,-468.7221575,-468.721990
 2,-468.7218261,-468.7216652,-468.7215073,-468.7213523,-468.7212001,-46
 8.7210507,-468.7209038,-468.7207594,-468.7206174,-468.7204777,-468.720
 3403,-468.720205,-468.7200719,-468.7199409,-468.7198121,-468.7196853,-
 468.7195606,-468.7194379,-468.7193172,-468.7191984,-468.7190815,-468.7
 189663,-468.7188529,-468.7187411,-468.7186308,-468.7185221,-468.718414
 7,-468.7183088,-468.7182042,-468.718101,-468.7179992,-468.7178987,-468
 .7177996,-468.7177019,-468.7176055,-468.7175103,-468.7174165,-468.7173
 239,-468.7172325,-468.7171423,-468.7170533,-468.7169654\RMSD=1.599e-09
 ,3.403e-09,5.120e-09,1.892e-09,1.169e-09,4.891e-09,3.476e-10,9.203e-09
 ,1.464e-09,2.079e-09,6.493e-09,2.374e-09,2.288e-09,6.880e-09,3.753e-09
 ,2.213e-09,9.453e-10,2.055e-09,5.411e-09,2.199e-09,5.268e-10,2.903e-09
 ,4.731e-09,4.338e-11,2.288e-09,9.002e-09,5.804e-09,1.931e-09,4.645e-09
 ,9.962e-10,3.453e-09,2.061e-09,2.144e-09,2.924e-09,2.491e-09,2.641e-09
 ,9.286e-09,6.691e-09,4.452e-09,3.211e-09,1.596e-09,6.356e-10,8.042e-09
 ,6.089e-09,4.788e-09,4.308e-09,3.102e-09,2.064e-09,2.440e-09,3.604e-09
 ,5.180e-09,4.883e-09,6.697e-09,5.640e-09,6.664e-09,6.971e-09,7.298e-09
 ,7.478e-09,7.183e-09,4.915e-09,3.947e-09,9.715e-09,2.349e-09,2.785e-09
 ,3.242e-09,3.541e-09,3.684e-09,3.294e-09,1.999e-09,1.809e-09,4.464e-09
 ,4.776e-09,5.804e-09,6.083e-09,6.492e-09,6.061e-09,5.841e-09,7.570e-09
 ,6.272e-09,5.627e-09,9.751e-09,7.331e-09,6.215e-09,8.400e-10,2.675e-09
 ,7.053e-09,6.871e-09,6.343e-09,5.947e-09,7.444e-09,4.962e-09,3.677e-09
 ,4.170e-09,7.978e-10,2.060e-09,6.908e-10,6.336e-09,2.086e-09,1.136e-09
 ,7.650e-10,5.711e-09,5.151e-09,7.478e-09,7.706e-10,1.038e-09,1.123e-09
 ,1.111e-09,1.870e-09,2.221e-09,1.028e-09,1.062e-09,1.132e-09,1.130e-09
 ,1.127e-09,1.124e-09,1.118e-09,1.101e-09,1.057e-09,7.270e-10,7.246e-10
 ,7.263e-10,5.622e-09,9.911e-10,1.822e-09,1.399e-09,1.412e-09,4.567e-10
 ,3.999e-09,8.302e-09,4.918e-09,5.027e-09,5.910e-09,8.223e-10,1.191e-09
 ,1.025e-09,8.765e-09,3.672e-09,1.843e-09,4.588e-09,1.978e-09,1.160e-09
 ,1.217e-09,9.377e-09,1.213e-09,1.129e-09,1.091e-09,1.099e-09,9.790e-09
 ,2.041e-10,8.799e-09,3.022e-10,6.839e-09,6.012e-09,1.491e-09,4.370e-09
 ,5.606e-09,5.313e-09,5.469e-09,9.694e-09,3.384e-09,8.299e-09,7.689e-09
 ,1.675e-09,4.168e-09,8.938e-09,3.833e-09,6.143e-09,6.885e-09,9.084e-09
 ,1.201e-09,3.717e-09,5.444e-09,8.131e-09,1.062e-11,8.824e-09,2.826e-09
 ,4.330e-09,6.255e-09,8.087e-09,9.745e-09,3.762e-11\PG=TD [O(Ni1),4C3(O
 1)]\\@
 The archive entry for this job was punched.


 SEEN ON A WALL AT THE UNIVERSITY OF ILLINOIS AT CHICAGO CIRCLE:

 TO DO IS TO BE  -- SOCRATES
 TO BE IS TO DO  -- SARTRE
 OO BE DO BE DO  -- SINATRA
 Job cpu time:       0 days  0 hours 12 minutes 45.4 seconds.
 Elapsed time:       0 days  0 hours  1 minutes 37.4 seconds.
 File lengths (MBytes):  RWF=      6 Int=      0 D2E=      0 Chk=      3 Scr=      1
 Normal termination of Gaussian 16 at Sat Oct 18 14:07:06 2025.
