 Entering Gaussian System, Link 0=g16
 Input=nio4-q4-scan.com
 Output=nio4-q4-scan.log
 Initial command:
 /opt/modules/software/gaussian/G16-C01/l1.exe "/home/futera/Documents/2025-nife2o4-params/bond-parameters/pbe0-lanl2dz/Gau-3760345.inp" -scrdir="/home/futera/Documents/2025-nife2o4-params/bond-parameters/pbe0-lanl2dz/"
 Entering Link 1 = /opt/modules/software/gaussian/G16-C01/l1.exe PID=   3760346.
  
 Copyright (c) 1988-2019, Gaussian, Inc.  All Rights Reserved.
  
 This is part of the Gaussian(R) 16 program.  It is based on
 the Gaussian(R) 09 system (copyright 2009, Gaussian, Inc.),
 the Gaussian(R) 03 system (copyright 2003, Gaussian, Inc.),
 the Gaussian(R) 98 system (copyright 1998, Gaussian, Inc.),
 the Gaussian(R) 94 system (copyright 1995, Gaussian, Inc.),
 the Gaussian 92(TM) system (copyright 1992, Gaussian, Inc.),
 the Gaussian 90(TM) system (copyright 1990, Gaussian, Inc.),
 the Gaussian 88(TM) system (copyright 1988, Gaussian, Inc.),
 the Gaussian 86(TM) system (copyright 1986, Carnegie Mellon
 University), and the Gaussian 82(TM) system (copyright 1983,
 Carnegie Mellon University). Gaussian is a federally registered
 trademark of Gaussian, Inc.
  
 This software contains proprietary and confidential information,
 including trade secrets, belonging to Gaussian, Inc.
  
 This software is provided under written license and may be
 used, copied, transmitted, or stored only in accord with that
 written license.
  
 The following legend is applicable only to US Government
 contracts under FAR:
  
                    RESTRICTED RIGHTS LEGEND
  
 Use, reproduction and disclosure by the US Government is
 subject to restrictions as set forth in subparagraphs (a)
 and (c) of the Commercial Computer Software - Restricted
 Rights clause in FAR 52.227-19.
  
 Gaussian, Inc.
 340 Quinnipiac St., Bldg. 40, Wallingford CT 06492
  
  
 ---------------------------------------------------------------
 Warning -- This program may not be used in any manner that
 competes with the business of Gaussian, Inc. or will provide
 assistance to any competitor of Gaussian, Inc.  The licensee
 of this program is prohibited from giving any competitor of
 Gaussian, Inc. access to this program.  By using this program,
 the user acknowledges that Gaussian, Inc. is engaged in the
 business of creating and licensing software in the field of
 computational chemistry and represents and warrants to the
 licensee that it is not a competitor of Gaussian, Inc. and that
 it will not use this program in any manner prohibited above.
 ---------------------------------------------------------------
  

 Cite this work as:
 Gaussian 16, Revision C.01,
 M. J. Frisch, G. W. Trucks, H. B. Schlegel, G. E. Scuseria, 
 M. A. Robb, J. R. Cheeseman, G. Scalmani, V. Barone, 
 G. A. Petersson, H. Nakatsuji, X. Li, M. Caricato, A. V. Marenich, 
 J. Bloino, B. G. Janesko, R. Gomperts, B. Mennucci, H. P. Hratchian, 
 J. V. Ortiz, A. F. Izmaylov, J. L. Sonnenberg, D. Williams-Young, 
 F. Ding, F. Lipparini, F. Egidi, J. Goings, B. Peng, A. Petrone, 
 T. Henderson, D. Ranasinghe, V. G. Zakrzewski, J. Gao, N. Rega, 
 G. Zheng, W. Liang, M. Hada, M. Ehara, K. Toyota, R. Fukuda, 
 J. Hasegawa, M. Ishida, T. Nakajima, Y. Honda, O. Kitao, H. Nakai, 
 T. Vreven, K. Throssell, J. A. Montgomery, Jr., J. E. Peralta, 
 F. Ogliaro, M. J. Bearpark, J. J. Heyd, E. N. Brothers, K. N. Kudin, 
 V. N. Staroverov, T. A. Keith, R. Kobayashi, J. Normand, 
 K. Raghavachari, A. P. Rendell, J. C. Burant, S. S. Iyengar, 
 J. Tomasi, M. Cossi, J. M. Millam, M. Klene, C. Adamo, R. Cammi, 
 J. W. Ochterski, R. L. Martin, K. Morokuma, O. Farkas, 
 J. B. Foresman, and D. J. Fox, Gaussian, Inc., Wallingford CT, 2019.
 
 ******************************************
 Gaussian 16:  ES64L-G16RevC.01  3-Jul-2019
                18-Oct-2025 
 ******************************************
 %mem=32GB
 %nproc=8
 Will use up to    8 processors via shared memory.
 ---------------------------------------------------------------------
 #p PBE1PBE/GenECP SCF(Tight,XQC,MaxCycle=500,MaxConventional=20) Scan
 ---------------------------------------------------------------------
 1/38=1,60=1,172=1/1,8;
 2/12=2,17=6,18=5,29=3,40=1/2;
 3/5=7,11=2,16=1,17=8,25=1,30=1,74=-13/1,2,3;
 4//1;
 5/5=2,7=500,8=3,13=1,32=2,38=5,85=20/2,8;
 6/7=2,8=2,9=2,10=2,18=1,28=1/1;
 1/60=1/8(1);
 99/9=1/99;
 2/29=3/2;
 3/5=7,6=1,11=2,16=1,17=8,25=1,30=1,74=-13,82=7/1,2,3;
 4/5=5,16=3,69=1/1;
 5/5=2,7=500,8=3,13=1,32=2,38=5,85=20/2,8;
 1/60=1/8(-4);
 99/9=1/99;
 Leave Link    1 at Sat Oct 18 14:23:06 2025, MaxMem=  4294967296 cpu:               0.2 elap:               0.0
 (Enter /opt/modules/software/gaussian/G16-C01/l101.exe)
 -----------------------------
 Nickel ferrate (PBE0/LANL2DZ)
 -----------------------------
 Symbolic Z-matrix:
 Charge = -4 Multiplicity = 1
 ni
 o                    1    r
 o                    1    r        2     109.471 
 o                    1    r        3     109.471  2    -120.     0
 o                    1    r        4     109.471  3     120.     0
       Variables:
  r                     1.5    Scan 170   0.05   
 
     3 tetrahedral angles replaced.
 ITRead=  0  0  0  0  0
 MicOpt= -1 -1 -1 -1 -1
 NAtoms=      5 NQM=        5 NQMF=       0 NMMI=      0 NMMIF=      0
                NMic=       0 NMicF=      0.
    3 tetrahedral angles replaced.
                    Isotopes and Nuclear Properties:
 (Nuclear quadrupole moments (NQMom) in fm**2, nuclear magnetic moments (NMagM)
  in nuclear magnetons)

  Atom         1           2           3           4           5
 IAtWgt=          58          16          16          16          16
 AtmWgt=  57.9353471  15.9949146  15.9949146  15.9949146  15.9949146
 NucSpn=           0           0           0           0           0
 AtZEff=  -0.0000000  -0.0000000  -0.0000000  -0.0000000  -0.0000000
 NQMom=    0.0000000   0.0000000   0.0000000   0.0000000   0.0000000
 NMagM=    0.0000000   0.0000000   0.0000000   0.0000000   0.0000000
 AtZNuc=  28.0000000   8.0000000   8.0000000   8.0000000   8.0000000
 Leave Link  101 at Sat Oct 18 14:23:06 2025, MaxMem=  4294967296 cpu:               0.7 elap:               0.1
 (Enter /opt/modules/software/gaussian/G16-C01/l108.exe)
 Scan the potential surface.
 Variable   Value     No. Steps Step-Size
 -------- ----------- --------- ---------
     1       1.500000     170      0.0500
 A total of    171 points will be computed.
 Leave Link  108 at Sat Oct 18 14:23:06 2025, MaxMem=  4294967296 cpu:               0.0 elap:               0.0
 (Enter /opt/modules/software/gaussian/G16-C01/l202.exe)
 ---------------------------------------------------------------------------------------------------
                            Z-MATRIX (ANGSTROMS AND DEGREES)
   CD    Cent   Atom    N1       Length/X        N2       Alpha/Y        N3        Beta/Z          J
 ---------------------------------------------------------------------------------------------------
      1      1  Ni
      2      2  O        1   1.500000(     1)
      3      3  O        1   1.500000(     2)      2  109.471(     5)
      4      4  O        1   1.500000(     3)      3  109.471(     6)      2 -120.000(     8)      0
      5      5  O        1   1.500000(     4)      4  109.471(     7)      3  120.000(     9)      0
 ---------------------------------------------------------------------------------------------------
                         Z-Matrix orientation:                         
 ---------------------------------------------------------------------
 Center     Atomic      Atomic             Coordinates (Angstroms)
 Number     Number       Type             X           Y           Z
 ---------------------------------------------------------------------
      1         28           0        0.000000    0.000000    0.000000
      2          8           0        0.000000    0.000000    1.500000
      3          8           0        1.414214    0.000000   -0.500000
      4          8           0       -0.707107   -1.224745   -0.500000
      5          8           0       -0.707107    1.224745   -0.500000
 ---------------------------------------------------------------------
                    Distance matrix (angstroms):
                    1          2          3          4          5
     1  Ni   0.000000
     2  O    1.500000   0.000000
     3  O    1.500000   2.449490   0.000000
     4  O    1.500000   2.449490   2.449490   0.000000
     5  O    1.500000   2.449490   2.449490   2.449490   0.000000
 Stoichiometry    NiO4(4-)
 Framework group  TD[O(Ni),4C3(O)]
 Deg. of freedom     1
 Full point group                 TD      NOp  24
 Largest Abelian subgroup         D2      NOp   4
 Largest concise Abelian subgroup D2      NOp   4
                         Standard orientation:                         
 ---------------------------------------------------------------------
 Center     Atomic      Atomic             Coordinates (Angstroms)
 Number     Number       Type             X           Y           Z
 ---------------------------------------------------------------------
      1         28           0        0.000000    0.000000    0.000000
      2          8           0        0.866025    0.866025    0.866025
      3          8           0       -0.866025   -0.866025    0.866025
      4          8           0       -0.866025    0.866025   -0.866025
      5          8           0        0.866025   -0.866025   -0.866025
 ---------------------------------------------------------------------
 Rotational constants (GHZ):           5.2660384           5.2660384           5.2660384
 Leave Link  202 at Sat Oct 18 14:23:06 2025, MaxMem=  4294967296 cpu:               0.0 elap:               0.0
 (Enter /opt/modules/software/gaussian/G16-C01/l301.exe)
 General basis read from cards:  (5D, 7F)
 Centers:       2      3      4      5
 S 7 1.00
     Exponent=  7.8170000000D+03 Coefficients=  1.1760000000D-03
     Exponent=  1.1760000000D+03 Coefficients=  8.9680000000D-03
     Exponent=  2.7320000000D+02 Coefficients=  4.2868000000D-02
     Exponent=  8.1170000000D+01 Coefficients=  1.4393000000D-01
     Exponent=  2.7180000000D+01 Coefficients=  3.5563000000D-01
     Exponent=  9.5320000000D+00 Coefficients=  4.6124800000D-01
     Exponent=  3.4140000000D+00 Coefficients=  1.4020600000D-01
 S 2 1.00
     Exponent=  9.5320000000D+00 Coefficients= -1.5415300000D-01
     Exponent=  9.3980000000D-01 Coefficients=  1.0569140000D+00
 S 1 1.00
     Exponent=  2.8460000000D-01 Coefficients=  1.0000000000D+00
 P 4 1.00
     Exponent=  3.5180000000D+01 Coefficients=  1.9580000000D-02
     Exponent=  7.9040000000D+00 Coefficients=  1.2420000000D-01
     Exponent=  2.3050000000D+00 Coefficients=  3.9471400000D-01
     Exponent=  7.1710000000D-01 Coefficients=  6.2737600000D-01
 P 1 1.00
     Exponent=  2.1370000000D-01 Coefficients=  1.0000000000D+00
 ****
 Centers:       1
 S 3 1.00
     Exponent=  7.6200000000D+00 Coefficients= -4.0825500000D-01
     Exponent=  2.2940000000D+00 Coefficients=  7.4553080000D-01
     Exponent=  8.7600000000D-01 Coefficients=  5.3257210000D-01
 S 4 1.00
     Exponent=  7.6200000000D+00 Coefficients=  1.8725910000D-01
     Exponent=  2.2940000000D+00 Coefficients= -3.9669640000D-01
     Exponent=  8.7600000000D-01 Coefficients= -4.9540030000D-01
     Exponent=  1.1530000000D-01 Coefficients=  1.0844343000D+00
 S 1 1.00
     Exponent=  3.9600000000D-02 Coefficients=  1.0000000000D+00
 P 3 1.00
     Exponent=  2.3660000000D+01 Coefficients= -4.8155800000D-02
     Exponent=  2.8930000000D+00 Coefficients=  6.2584730000D-01
     Exponent=  9.4350000000D-01 Coefficients=  4.7151580000D-01
 P 1 1.00
     Exponent=  8.4000000000D-02 Coefficients=  1.0000000000D+00
 P 1 1.00
     Exponent=  2.4000000000D-02 Coefficients=  1.0000000000D+00
 D 4 1.00
     Exponent=  4.2720000000D+01 Coefficients=  3.7269900000D-02
     Exponent=  1.1760000000D+01 Coefficients=  1.9561030000D-01
     Exponent=  3.8170000000D+00 Coefficients=  4.5612730000D-01
     Exponent=  1.1690000000D+00 Coefficients=  5.6215870000D-01
 D 1 1.00
     Exponent=  2.8360000000D-01 Coefficients=  1.0000000000D+00
 ****
 ======================================================================================================
                                       Pseudopotential Parameters
 ======================================================================================================
  Center     Atomic      Valence      Angular      Power
  Number     Number     Electrons     Momentum     of R      Exponent        Coefficient   SO-Coeffient
 ======================================================================================================
    1         28           18
                                      D and up 
                                                     1      469.9324331      -10.00000000    0.00000000
                                                     2       85.4236411      -69.40848050    0.00000000
                                                     2       21.2674984      -12.09510200    0.00000000
                                      S - D
                                                     0      162.1686097        3.00000000    0.00000000
                                                     1      176.5333232       22.02536180    0.00000000
                                                     2       68.9562010      443.01810880    0.00000000
                                                     2       13.5792838      145.56964110    0.00000000
                                      P - D
                                                     0       69.0181506        5.00000000    0.00000000
                                                     1      275.5955596        4.98828240    0.00000000
                                                     2       47.1315453      256.69458530    0.00000000
                                                     2       12.9874075       78.47544500    0.00000000
    2          8
                                   No pseudopotential on this center.
    3          8
                                   No pseudopotential on this center.
    4          8
                                   No pseudopotential on this center.
    5          8
                                   No pseudopotential on this center.
 ======================================================================================================
 Ernie: Thresh=  0.10000D-02 Tol=  0.10000D-05 Strict=F.
 Ernie:  1 primitive shells out of 78 were deleted.
 There are    18 symmetry adapted cartesian basis functions of A   symmetry.
 There are    14 symmetry adapted cartesian basis functions of B1  symmetry.
 There are    14 symmetry adapted cartesian basis functions of B2  symmetry.
 There are    14 symmetry adapted cartesian basis functions of B3  symmetry.
 There are    16 symmetry adapted basis functions of A   symmetry.
 There are    14 symmetry adapted basis functions of B1  symmetry.
 There are    14 symmetry adapted basis functions of B2  symmetry.
 There are    14 symmetry adapted basis functions of B3  symmetry.
    58 basis functions,   152 primitive gaussians,    60 cartesian basis functions
    27 alpha electrons       27 beta electrons
       nuclear repulsion energy       286.1617546101 Hartrees.
 IExCor= 1009 DFT=T Ex+Corr=PBE1PBE ExCW=0 ScaHFX=  0.250000
 ScaDFX=  0.750000  0.750000  1.000000  1.000000 ScalE2=  1.000000  1.000000
 IRadAn=      5 IRanWt=     -1 IRanGd=            0 ICorTp=0 IEmpDi=  4
 NAtoms=    5 NActive=    5 NUniq=    2 SFac= 4.00D+00 NAtFMM=   60 NAOKFM=F Big=F
 Integral buffers will be    131072 words long.
 Raffenetti 2 integral format.
 Two-electron integral symmetry is turned on.
 Leave Link  301 at Sat Oct 18 14:23:06 2025, MaxMem=  4294967296 cpu:               0.3 elap:               0.0
 (Enter /opt/modules/software/gaussian/G16-C01/l302.exe)
 NPDir=0 NMtPBC=     1 NCelOv=     1 NCel=       1 NClECP=     1 NCelD=      1
         NCelK=      1 NCelE2=     1 NClLst=     1 CellRange=     0.0.
 One-electron integrals computed using PRISM.
 One-electron integral symmetry used in STVInt
  24 Symmetry operations used in ECPInt.
 ECPInt:  NShTT=     406 NPrTT=    3130 LenC2=     407 LenP2D=    2480.
 LDataN:  DoStor=T MaxTD1= 4 Len=   56
 NBasis=    58 RedAO= T EigKep=  1.11D-02  NBF=    16    14    14    14
 NBsUse=    58 1.00D-06 EigRej= -1.00D+00 NBFU=    16    14    14    14
 Precomputing XC quadrature grid using
 IXCGrd= 4 IRadAn=           5 IRanWt=          -1 IRanGd=           0 AccXCQ= 0.00D+00.
 Generated NRdTot=       0 NPtTot=           0 NUsed=           0 NTot=          32
 NSgBfM=    60    60    60    60    60 MxSgAt=     5 MxSgA2=     5.
 Leave Link  302 at Sat Oct 18 14:23:06 2025, MaxMem=  4294967296 cpu:               0.6 elap:               0.1
 (Enter /opt/modules/software/gaussian/G16-C01/l303.exe)
 DipDrv:  MaxL=1.
 Leave Link  303 at Sat Oct 18 14:23:06 2025, MaxMem=  4294967296 cpu:               0.1 elap:               0.0
 (Enter /opt/modules/software/gaussian/G16-C01/l401.exe)
 ExpMin= 2.40D-02 ExpMax= 7.82D+03 ExpMxC= 2.73D+02 IAcc=3 IRadAn=         5 AccDes= 0.00D+00
 Harris functional with IExCor= 1009 and IRadAn=       5 diagonalized for initial guess.
 HarFok:  IExCor= 1009 AccDes= 0.00D+00 IRadAn=         5 IDoV= 1 UseB2=F ITyADJ=14
 ICtDFT=  3500011 ScaDFX=  1.000000  1.000000  1.000000  1.000000
 FoFCou: FMM=F IPFlag=           0 FMFlag=      100000 FMFlg1=           0
         NFxFlg=           0 DoJE=T BraDBF=F KetDBF=T FulRan=T
         wScrn=  0.000000 ICntrl=       500 IOpCl=  0 I1Cent=   200000004 NGrid=           0
         NMat0=    1 NMatS0=      1 NMatT0=    0 NMatD0=    1 NMtDS0=    0 NMtDT0=    0
 Petite list used in FoFCou.
 Harris En= -470.895016652596    
 JPrj=0 DoOrth=F DoCkMO=F.
 Initial guess orbital symmetries:
       Occupied  (T2) (T2) (T2) (A1) (A1) (T2) (T2) (T2) (A1) (T2)
                 (T2) (T2) (E) (E) (T2) (T2) (T2) (A1) (T2) (T2)
                 (T2) (T1) (T1) (T1) (E) (E) (T2)
       Virtual   (T2) (T2) (A1) (T2) (T2) (T2) (T2) (T2) (T2) (A1)
                 (E) (E) (T2) (T2) (T2) (T1) (T1) (T1) (T2) (T2)
                 (T2) (E) (E) (T2) (T2) (T2) (A1) (T2) (T2) (T2)
                 (A1)
 Leave Link  401 at Sat Oct 18 14:23:06 2025, MaxMem=  4294967296 cpu:               0.6 elap:               0.1
 (Enter /opt/modules/software/gaussian/G16-C01/l502.exe)
 Keep R1 ints in memory in symmetry-blocked form, NReq=8551516.
 FoFCou: FMM=F IPFlag=           0 FMFlag=           0 FMFlg1=           0
         NFxFlg=           0 DoJE=F BraDBF=F KetDBF=F FulRan=T
         wScrn=  0.000000 ICntrl=       600 IOpCl=  0 I1Cent=           0 NGrid=           0
         NMat0=    1 NMatS0=   1711 NMatT0=    0 NMatD0=    1 NMtDS0=    0 NMtDT0=    0
 Petite list used in FoFCou.
 Closed shell SCF:
 Using DIIS extrapolation, IDIIS=  1040.
 NGot=  4294967296 LenX=  4294585980 LenY=  4294581939
 Requested convergence on RMS density matrix=1.00D-08 within  20 cycles.
 Requested convergence on MAX density matrix=1.00D-06.
 Requested convergence on             energy=1.00D-06.
 No special actions if energy rises.

 Cycle   1  Pass 1  IDiag  1:
 Density matrix breaks symmetry, PCut= 1.00D-04
 Density has only Abelian symmetry.
 E= -466.720628115434    
 DIIS: error= 1.30D-01 at cycle   1 NSaved=   1.
 NSaved= 1 IEnMin= 1 EnMin= -466.720628115434     IErMin= 1 ErrMin= 1.30D-01
 ErrMax= 1.30D-01  0.00D+00 EMaxC= 1.00D-01 BMatC= 1.93D+00 BMatP= 1.93D+00
 IDIUse=3 WtCom= 0.00D+00 WtEn= 1.00D+00
 Coeff-Com:  0.100D+01
 Coeff-En:   0.100D+01
 Coeff:      0.100D+01
 Gap=     0.135 Goal=   None    Shift=    0.000
 GapD=    0.135 DampG=1.000 DampE=0.125 DampFc=0.1250 IDamp=-1.
 Damping current iteration by 1.25D-01
 RMSDP=1.11D-01 MaxDP=2.43D+00              OVMax= 9.90D-01

 Cycle   2  Pass 1  IDiag  1:
 Density matrix breaks symmetry, PCut= 1.00D-04
 Density has only Abelian symmetry.
 E= -467.385645361974     Delta-E=       -0.665017246540 Rises=F Damp=T
 DIIS: error= 7.90D-02 at cycle   2 NSaved=   2.
 NSaved= 2 IEnMin= 2 EnMin= -467.385645361974     IErMin= 2 ErrMin= 7.90D-02
 ErrMax= 7.90D-02  0.00D+00 EMaxC= 1.00D-01 BMatC= 6.65D-01 BMatP= 1.93D+00
 IDIUse=3 WtCom= 2.10D-01 WtEn= 7.90D-01
 Coeff-Com: -0.141D+01 0.241D+01
 Coeff-En:   0.000D+00 0.100D+01
 Coeff:     -0.296D+00 0.130D+01
 Gap=     0.029 Goal=   None    Shift=    0.000
 RMSDP=7.56D-02 MaxDP=1.56D+00 DE=-6.65D-01 OVMax= 1.23D-01

 Cycle   3  Pass 1  IDiag  1:
 Density matrix breaks symmetry, PCut= 1.00D-04
 Density has only Abelian symmetry.
 E= -464.802932049153     Delta-E=        2.582713312820 Rises=F Damp=F
 DIIS: error= 2.07D-01 at cycle   3 NSaved=   3.
 NSaved= 3 IEnMin= 2 EnMin= -467.385645361974     IErMin= 2 ErrMin= 7.90D-02
 ErrMax= 2.07D-01  0.00D+00 EMaxC= 1.00D-01 BMatC= 3.29D+00 BMatP= 6.65D-01
 IDIUse=2 WtCom= 0.00D+00 WtEn= 1.00D+00
 EnCoef did   100 forward-backward iterations
 Coeff-En:   0.593D+00 0.260D-01 0.381D+00
 Coeff:      0.593D+00 0.260D-01 0.381D+00
 Gap=    -0.148 Goal=   None    Shift=    0.000
 RMSDP=7.05D-02 MaxDP=1.79D+00 DE= 2.58D+00 OVMax= 9.93D-01

 Cycle   4  Pass 1  IDiag  1:
 Density matrix breaks symmetry, PCut= 1.00D-04
 Density has only Abelian symmetry.
 E= -468.593957827485     Delta-E=       -3.791025778332 Rises=F Damp=F
 DIIS: error= 1.75D-02 at cycle   4 NSaved=   4.
 NSaved= 4 IEnMin= 4 EnMin= -468.593957827485     IErMin= 4 ErrMin= 1.75D-02
 ErrMax= 1.75D-02  0.00D+00 EMaxC= 1.00D-01 BMatC= 1.18D-02 BMatP= 6.65D-01
 IDIUse=3 WtCom= 8.25D-01 WtEn= 1.75D-01
 Coeff-Com: -0.820D+00 0.135D+01-0.421D-01 0.508D+00
 Coeff-En:   0.000D+00 0.000D+00 0.000D+00 0.100D+01
 Coeff:     -0.676D+00 0.112D+01-0.347D-01 0.594D+00
 Gap=     0.018 Goal=   None    Shift=    0.000
 RMSDP=6.80D-02 MaxDP=1.78D+00 DE=-3.79D+00 OVMax= 7.95D-02

 Cycle   5  Pass 1  IDiag  1:
 Density matrix breaks symmetry, PCut= 1.00D-04
 Density has only Abelian symmetry.
 E= -466.536660133332     Delta-E=        2.057297694153 Rises=F Damp=F
 DIIS: error= 2.28D-01 at cycle   5 NSaved=   5.
 NSaved= 5 IEnMin= 4 EnMin= -468.593957827485     IErMin= 4 ErrMin= 1.75D-02
 ErrMax= 2.28D-01  0.00D+00 EMaxC= 1.00D-01 BMatC= 1.84D+00 BMatP= 1.18D-02
 IDIUse=2 WtCom= 0.00D+00 WtEn= 1.00D+00
 Coeff-En:   0.000D+00 0.000D+00 0.000D+00 0.963D+00 0.369D-01
 Coeff:      0.000D+00 0.000D+00 0.000D+00 0.963D+00 0.369D-01
 Gap=     0.012 Goal=   None    Shift=    0.000
 RMSDP=6.65D-02 MaxDP=1.77D+00 DE= 2.06D+00 OVMax= 1.78D-02

 Cycle   6  Pass 1  IDiag  1:
 Density matrix breaks symmetry, PCut= 1.00D-04
 Density has only Abelian symmetry.
 E= -468.575972817205     Delta-E=       -2.039312683873 Rises=F Damp=F
 DIIS: error= 3.46D-02 at cycle   6 NSaved=   6.
 NSaved= 6 IEnMin= 4 EnMin= -468.593957827485     IErMin= 4 ErrMin= 1.75D-02
 ErrMax= 3.46D-02  0.00D+00 EMaxC= 1.00D-01 BMatC= 7.59D-02 BMatP= 1.18D-02
 IDIUse=2 WtCom= 0.00D+00 WtEn= 1.00D+00
 Coeff-En:   0.000D+00 0.000D+00 0.000D+00 0.622D+00 0.000D+00 0.378D+00
 Coeff:      0.000D+00 0.000D+00 0.000D+00 0.622D+00 0.000D+00 0.378D+00
 Gap=     0.025 Goal=   None    Shift=    0.000
 RMSDP=3.47D-03 MaxDP=7.71D-02 DE=-2.04D+00 OVMax= 8.12D-02

 Cycle   7  Pass 1  IDiag  1:
 Density matrix breaks symmetry, PCut= 1.00D-04
 Density has only Abelian symmetry.
 E= -468.608223003870     Delta-E=       -0.032250186665 Rises=F Damp=F
 DIIS: error= 1.78D-02 at cycle   7 NSaved=   7.
 NSaved= 7 IEnMin= 7 EnMin= -468.608223003870     IErMin= 4 ErrMin= 1.75D-02
 ErrMax= 1.78D-02  0.00D+00 EMaxC= 1.00D-01 BMatC= 2.37D-02 BMatP= 1.18D-02
 IDIUse=2 WtCom= 0.00D+00 WtEn= 1.00D+00
 Coeff-En:   0.000D+00 0.000D+00 0.000D+00 0.000D+00 0.000D+00 0.322D+00
 Coeff-En:   0.678D+00
 Coeff:      0.000D+00 0.000D+00 0.000D+00 0.000D+00 0.000D+00 0.322D+00
 Coeff:      0.678D+00
 Gap=     0.024 Goal=   None    Shift=    0.000
 RMSDP=2.01D-03 MaxDP=4.51D-02 DE=-3.23D-02 OVMax= 3.08D-02

 Cycle   8  Pass 1  IDiag  1:
 Density matrix breaks symmetry, PCut= 1.00D-04
 Density has only Abelian symmetry.
 E= -468.621112173849     Delta-E=       -0.012889169979 Rises=F Damp=F
 DIIS: error= 6.94D-03 at cycle   8 NSaved=   8.
 NSaved= 8 IEnMin= 8 EnMin= -468.621112173849     IErMin= 8 ErrMin= 6.94D-03
 ErrMax= 6.94D-03  0.00D+00 EMaxC= 1.00D-01 BMatC= 3.43D-03 BMatP= 1.18D-02
 IDIUse=3 WtCom= 9.31D-01 WtEn= 6.94D-02
 Coeff-Com: -0.620D-01 0.968D-01-0.197D-02-0.367D-01 0.848D-03-0.119D-02
 Coeff-Com:  0.278D+00 0.727D+00
 Coeff-En:   0.000D+00 0.000D+00 0.000D+00 0.000D+00 0.000D+00 0.000D+00
 Coeff-En:   0.205D+00 0.795D+00
 Coeff:     -0.577D-01 0.901D-01-0.183D-02-0.342D-01 0.789D-03-0.110D-02
 Coeff:      0.273D+00 0.731D+00
 Gap=     0.023 Goal=   None    Shift=    0.000
 RMSDP=5.67D-04 MaxDP=1.03D-02 DE=-1.29D-02 OVMax= 1.11D-02

 Cycle   9  Pass 1  IDiag  1:
 Density matrix breaks symmetry, PCut= 1.00D-04
 Density has only Abelian symmetry.
 E= -468.623285514777     Delta-E=       -0.002173340929 Rises=F Damp=F
 DIIS: error= 3.02D-04 at cycle   9 NSaved=   9.
 NSaved= 9 IEnMin= 9 EnMin= -468.623285514777     IErMin= 9 ErrMin= 3.02D-04
 ErrMax= 3.02D-04  0.00D+00 EMaxC= 1.00D-01 BMatC= 4.40D-06 BMatP= 3.43D-03
 IDIUse=3 WtCom= 9.97D-01 WtEn= 3.02D-03
 Coeff-Com: -0.490D-02 0.580D-02-0.239D-03-0.197D-01-0.557D-04-0.821D-02
 Coeff-Com:  0.143D-02 0.421D-01 0.984D+00
 Coeff-En:   0.000D+00 0.000D+00 0.000D+00 0.000D+00 0.000D+00 0.000D+00
 Coeff-En:   0.000D+00 0.000D+00 0.100D+01
 Coeff:     -0.488D-02 0.578D-02-0.239D-03-0.197D-01-0.555D-04-0.819D-02
 Coeff:      0.143D-02 0.420D-01 0.984D+00
 Gap=     0.024 Goal=   None    Shift=    0.000
 RMSDP=1.60D-04 MaxDP=2.76D-03 DE=-2.17D-03 OVMax= 1.12D-03

 Cycle  10  Pass 1  IDiag  1:
 Density matrix breaks symmetry, PCut= 1.00D-04
 Density has only Abelian symmetry.
 E= -468.623301665507     Delta-E=       -0.000016150730 Rises=F Damp=F
 DIIS: error= 1.27D-04 at cycle  10 NSaved=  10.
 NSaved=10 IEnMin=10 EnMin= -468.623301665507     IErMin=10 ErrMin= 1.27D-04
 ErrMax= 1.27D-04  0.00D+00 EMaxC= 1.00D-01 BMatC= 1.07D-06 BMatP= 4.40D-06
 IDIUse=3 WtCom= 9.99D-01 WtEn= 1.27D-03
 Coeff-Com:  0.166D-02-0.278D-02 0.104D-03 0.150D-02 0.778D-05 0.737D-02
 Coeff-Com: -0.640D-02-0.615D-01-0.919D-01 0.115D+01
 Coeff-En:   0.000D+00 0.000D+00 0.000D+00 0.000D+00 0.000D+00 0.000D+00
 Coeff-En:   0.000D+00 0.000D+00 0.000D+00 0.100D+01
 Coeff:      0.166D-02-0.277D-02 0.104D-03 0.150D-02 0.777D-05 0.736D-02
 Coeff:     -0.639D-02-0.614D-01-0.917D-01 0.115D+01
 Gap=     0.024 Goal=   None    Shift=    0.000
 RMSDP=4.03D-05 MaxDP=3.67D-04 DE=-1.62D-05 OVMax= 7.76D-04

 Cycle  11  Pass 1  IDiag  1:
 Density matrix breaks symmetry, PCut= 1.00D-04
 Density has only Abelian symmetry.
 E= -468.623302977237     Delta-E=       -0.000001311730 Rises=F Damp=F
 DIIS: error= 2.25D-05 at cycle  11 NSaved=  11.
 NSaved=11 IEnMin=11 EnMin= -468.623302977237     IErMin=11 ErrMin= 2.25D-05
 ErrMax= 2.25D-05  0.00D+00 EMaxC= 1.00D-01 BMatC= 2.66D-08 BMatP= 1.07D-06
 IDIUse=1 WtCom= 1.00D+00 WtEn= 0.00D+00
 Coeff-Com: -0.585D-04 0.101D-03 0.311D-06-0.462D-05-0.230D-05 0.996D-03
 Coeff-Com:  0.458D-03-0.783D-03 0.411D-02-0.414D-02 0.999D+00
 Coeff:     -0.585D-04 0.101D-03 0.311D-06-0.462D-05-0.230D-05 0.996D-03
 Coeff:      0.458D-03-0.783D-03 0.411D-02-0.414D-02 0.999D+00
 Gap=     0.024 Goal=   None    Shift=    0.000
 RMSDP=1.26D-05 MaxDP=1.14D-04 DE=-1.31D-06 OVMax= 3.11D-04

 Cycle  12  Pass 1  IDiag  1:
 Density matrix breaks symmetry, PCut= 1.00D-04
 Density has only Abelian symmetry.
 E= -468.623303021796     Delta-E=       -0.000000044560 Rises=F Damp=F
 DIIS: error= 2.81D-06 at cycle  12 NSaved=  12.
 NSaved=12 IEnMin=12 EnMin= -468.623303021796     IErMin=12 ErrMin= 2.81D-06
 ErrMax= 2.81D-06  0.00D+00 EMaxC= 1.00D-01 BMatC= 4.42D-10 BMatP= 2.66D-08
 IDIUse=1 WtCom= 1.00D+00 WtEn= 0.00D+00
 Coeff-Com: -0.259D-05 0.103D-04 0.857D-07 0.140D-04-0.539D-06-0.393D-03
 Coeff-Com: -0.128D-03 0.113D-02-0.338D-03-0.158D-01-0.115D+00 0.113D+01
 Coeff:     -0.259D-05 0.103D-04 0.857D-07 0.140D-04-0.539D-06-0.393D-03
 Coeff:     -0.128D-03 0.113D-02-0.338D-03-0.158D-01-0.115D+00 0.113D+01
 Gap=     0.024 Goal=   None    Shift=    0.000
 RMSDP=8.34D-06 MaxDP=7.90D-05 DE=-4.46D-08 OVMax= 2.22D-04

 Cycle  13  Pass 1  IDiag  1:
 Density matrix breaks symmetry, PCut= 1.00D-04
 Density has only Abelian symmetry.
 E= -468.623303032356     Delta-E=       -0.000000010560 Rises=F Damp=F
 DIIS: error= 1.54D-06 at cycle  13 NSaved=  13.
 NSaved=13 IEnMin=13 EnMin= -468.623303032356     IErMin=13 ErrMin= 1.54D-06
 ErrMax= 1.54D-06  0.00D+00 EMaxC= 1.00D-01 BMatC= 8.96D-11 BMatP= 4.42D-10
 IDIUse=1 WtCom= 1.00D+00 WtEn= 0.00D+00
 Coeff-Com:  0.107D-04-0.195D-04-0.273D-06-0.199D-06 0.563D-06 0.215D-03
 Coeff-Com:  0.209D-04-0.683D-03-0.349D-03 0.121D-01 0.131D-01-0.987D+00
 Coeff-Com:  0.196D+01
 Coeff:      0.107D-04-0.195D-04-0.273D-06-0.199D-06 0.563D-06 0.215D-03
 Coeff:      0.209D-04-0.683D-03-0.349D-03 0.121D-01 0.131D-01-0.987D+00
 Coeff:      0.196D+01
 Gap=     0.024 Goal=   None    Shift=    0.000
 RMSDP=8.15D-06 MaxDP=7.63D-05 DE=-1.06D-08 OVMax= 2.19D-04

 Cycle  14  Pass 1  IDiag  1:
 Density matrix breaks symmetry, PCut= 1.00D-04
 Density has only Abelian symmetry.
 E= -468.623303036431     Delta-E=       -0.000000004075 Rises=F Damp=F
 DIIS: error= 2.36D-07 at cycle  14 NSaved=  14.
 NSaved=14 IEnMin=14 EnMin= -468.623303036431     IErMin=14 ErrMin= 2.36D-07
 ErrMax= 2.36D-07  0.00D+00 EMaxC= 1.00D-01 BMatC= 2.35D-12 BMatP= 8.96D-11
 IDIUse=1 WtCom= 1.00D+00 WtEn= 0.00D+00
 Coeff-Com: -0.579D-05 0.968D-05-0.624D-07-0.575D-05-0.448D-07-0.386D-04
 Coeff-Com:  0.209D-04 0.148D-03 0.226D-03-0.193D-02 0.459D-02 0.253D+00
 Coeff-Com: -0.678D+00 0.142D+01
 Coeff:     -0.579D-05 0.968D-05-0.624D-07-0.575D-05-0.448D-07-0.386D-04
 Coeff:      0.209D-04 0.148D-03 0.226D-03-0.193D-02 0.459D-02 0.253D+00
 Coeff:     -0.678D+00 0.142D+01
 Gap=     0.024 Goal=   None    Shift=    0.000
 RMSDP=1.28D-06 MaxDP=1.16D-05 DE=-4.07D-09 OVMax= 3.50D-05

 Cycle  15  Pass 1  IDiag  1:
 Density matrix breaks symmetry, PCut= 1.00D-04
 Density has only Abelian symmetry.
 E= -468.623303036524     Delta-E=       -0.000000000093 Rises=F Damp=F
 DIIS: error= 5.00D-08 at cycle  15 NSaved=  15.
 NSaved=15 IEnMin=15 EnMin= -468.623303036524     IErMin=15 ErrMin= 5.00D-08
 ErrMax= 5.00D-08  0.00D+00 EMaxC= 1.00D-01 BMatC= 1.78D-13 BMatP= 2.35D-12
 IDIUse=1 WtCom= 1.00D+00 WtEn= 0.00D+00
 Coeff-Com:  0.548D-06-0.830D-06-0.346D-08 0.153D-05-0.504D-08 0.310D-05
 Coeff-Com: -0.263D-05-0.142D-04-0.138D-03-0.203D-04 0.372D-04-0.238D-01
 Coeff-Com:  0.922D-01-0.330D+00 0.126D+01
 Coeff:      0.548D-06-0.830D-06-0.346D-08 0.153D-05-0.504D-08 0.310D-05
 Coeff:     -0.263D-05-0.142D-04-0.138D-03-0.203D-04 0.372D-04-0.238D-01
 Coeff:      0.922D-01-0.330D+00 0.126D+01
 Gap=     0.024 Goal=   None    Shift=    0.000
 RMSDP=3.95D-08 MaxDP=2.69D-07 DE=-9.28D-11 OVMax= 1.07D-06

 Cycle  16  Pass 1  IDiag  1:
 Density matrix breaks symmetry, PCut= 1.00D-04
 Density has only Abelian symmetry.
 E= -468.623303036525     Delta-E=       -0.000000000002 Rises=F Damp=F
 DIIS: error= 1.30D-08 at cycle  16 NSaved=  16.
 NSaved=16 IEnMin=16 EnMin= -468.623303036525     IErMin=16 ErrMin= 1.30D-08
 ErrMax= 1.30D-08  0.00D+00 EMaxC= 1.00D-01 BMatC= 1.49D-14 BMatP= 1.78D-13
 IDIUse=1 WtCom= 1.00D+00 WtEn= 0.00D+00
 Large coefficients: NSaved= 16 BigCof=    0.00 CofMax=   10.00 Det=-6.62D-15
 Inversion failed.  Reducing to 15 matrices.
 Coeff-Com:  0.932D-09-0.366D-08-0.189D-07-0.571D-09-0.254D-07-0.221D-06
 Coeff-Com:  0.177D-05 0.242D-04 0.620D-04-0.827D-04-0.158D-03-0.524D-02
 Coeff-Com:  0.358D-01-0.225D+00 0.119D+01
 Coeff:      0.932D-09-0.366D-08-0.189D-07-0.571D-09-0.254D-07-0.221D-06
 Coeff:      0.177D-05 0.242D-04 0.620D-04-0.827D-04-0.158D-03-0.524D-02
 Coeff:      0.358D-01-0.225D+00 0.119D+01
 Gap=     0.024 Goal=   None    Shift=    0.000
 RMSDP=1.14D-08 MaxDP=9.55D-08 DE=-1.59D-12 OVMax= 3.08D-07

 Cycle  17  Pass 1  IDiag  1:
 Density matrix breaks symmetry, PCut= 1.00D-04
 Density has only Abelian symmetry.
 E= -468.623303036523     Delta-E=        0.000000000002 Rises=F Damp=F
 DIIS: error= 1.87D-09 at cycle  17 NSaved=  16.
 NSaved=16 IEnMin=15 EnMin= -468.623303036525     IErMin=16 ErrMin= 1.87D-09
 ErrMax= 1.87D-09  0.00D+00 EMaxC= 1.00D-01 BMatC= 9.18D-17 BMatP= 1.49D-14
 IDIUse=1 WtCom= 1.00D+00 WtEn= 0.00D+00
 Large coefficients: NSaved= 16 BigCof=    0.00 CofMax=   10.00 Det=-1.29D-16
 Inversion failed.  Reducing to 15 matrices.
 Large coefficients: NSaved= 15 BigCof=    0.00 CofMax=   10.00 Det=-1.29D-16
 Inversion failed.  Reducing to 14 matrices.
 Coeff-Com:  0.240D-09-0.342D-07 0.114D-07 0.855D-07-0.908D-06-0.604D-05
 Coeff-Com: -0.196D-04 0.376D-04 0.343D-03 0.472D-03-0.633D-02 0.508D-01
 Coeff-Com: -0.512D+00 0.147D+01
 Coeff:      0.240D-09-0.342D-07 0.114D-07 0.855D-07-0.908D-06-0.604D-05
 Coeff:     -0.196D-04 0.376D-04 0.343D-03 0.472D-03-0.633D-02 0.508D-01
 Coeff:     -0.512D+00 0.147D+01
 Gap=     0.024 Goal=   None    Shift=    0.000
 RMSDP=6.90D-09 MaxDP=5.90D-08 DE= 2.05D-12 OVMax= 1.73D-07

 Density matrix breaks symmetry, PCut= 1.00D-04
 Density has only Abelian symmetry.
 SCF Done:  E(RPBE1PBE) =  -468.623303037     A.U. after   17 cycles
            NFock= 17  Conv=0.69D-08     -V/T= 2.1558
 KE= 4.054489473080D+02 PE=-1.726397020591D+03 EE= 5.661630156361D+02
 Leave Link  502 at Sat Oct 18 14:23:07 2025, MaxMem=  4294967296 cpu:               2.9 elap:               0.4
 (Enter /opt/modules/software/gaussian/G16-C01/l508.exe)
 QCSCF skips out because SCF is already converged.
 Leave Link  508 at Sat Oct 18 14:23:07 2025, MaxMem=  4294967296 cpu:               0.0 elap:               0.0
 (Enter /opt/modules/software/gaussian/G16-C01/l601.exe)
 Copying SCF densities to generalized density rwf, IOpCl= 0 IROHF=0.
 SCF density gives NOpUse=  4 NOpAll= 24.
 Marking SCF density as not fully symmetric.

 **********************************************************************

            Population analysis using the SCF Density.

 **********************************************************************

 Orbital symmetries:
       Occupied  (T2) (T2) (T2) (A1) (A1) (T2) (T2) (T2) (A1) (?A)
                 (?A) (?A) (E) (E) (?A) (?A) (?A) (?B) (?A) (?A)
                 (?A) (?A) (?A) (?A) (?B) (?B) (?A)
       Virtual   (?A) (?A) (?A) (?A) (?A) (?B) (?C) (?C) (?C) (?B)
                 (?B) (?B) (?C) (?C) (?C) (?C) (?C) (?C) (?C) (?C)
                 (?C) (?B) (?B) (?C) (?C) (?C) (?B) (?C) (?C) (?C)
                 (A1)
 Unable to determine electronic state:  an orbital has unidentified symmetry.
 Alpha  occ. eigenvalues --  -18.50604 -18.50604 -18.50604 -18.50604  -3.59099
 Alpha  occ. eigenvalues --   -2.18160  -2.17959  -2.17959  -0.28064  -0.24948
 Alpha  occ. eigenvalues --   -0.24948  -0.24922   0.14414   0.14454   0.18380
 Alpha  occ. eigenvalues --    0.18380   0.18400   0.31570   0.33690   0.33812
 Alpha  occ. eigenvalues --    0.33812   0.41709   0.41793   0.41793   0.43609
 Alpha  occ. eigenvalues --    0.43708   0.45111
 Alpha virt. eigenvalues --    0.47484   0.47484   0.60758   0.60803   0.60803
 Alpha virt. eigenvalues --    0.65802   0.89763   0.89763   0.90994   1.24941
 Alpha virt. eigenvalues --    1.29349   1.29928   1.30928   1.30928   1.30967
 Alpha virt. eigenvalues --    1.49739   1.49739   1.49767   1.50053   1.50698
 Alpha virt. eigenvalues --    1.50698   1.63102   1.63503   1.75597   1.75597
 Alpha virt. eigenvalues --    1.75893   1.92605   2.22332   2.22332   2.22476
 Alpha virt. eigenvalues --   17.01385
          Condensed to atoms (all electrons):
               1          2          3          4          5
     1  Ni  18.621685   0.140416   0.140416   0.140416   0.140416
     2  O    0.140416   8.561894   0.010618  -0.004383  -0.004383
     3  O    0.140416   0.010618   8.561894  -0.004383  -0.004383
     4  O    0.140416  -0.004383  -0.004383   8.561894   0.010618
     5  O    0.140416  -0.004383  -0.004383   0.010618   8.561894
 Mulliken charges:
               1
     1  Ni  -1.183349
     2  O   -0.704163
     3  O   -0.704163
     4  O   -0.704163
     5  O   -0.704163
 Sum of Mulliken charges =  -4.00000
 Mulliken charges with hydrogens summed into heavy atoms:
               1
     1  Ni  -1.183349
     2  O   -0.704163
     3  O   -0.704163
     4  O   -0.704163
     5  O   -0.704163
 Electronic spatial extent (au):  <R**2>=            504.9723
 Charge=             -4.0000 electrons
 Dipole moment (field-independent basis, Debye):
    X=              0.0000    Y=              0.0000    Z=              0.0000  Tot=              0.0000
 Quadrupole moment (field-independent basis, Debye-Ang):
   XX=            -86.7965   YY=            -86.7965   ZZ=           -159.7813
   XY=              0.0000   XZ=              0.0000   YZ=              0.0000
 Traceless Quadrupole moment (field-independent basis, Debye-Ang):
   XX=             24.3283   YY=             24.3283   ZZ=            -48.6565
   XY=              0.0000   XZ=              0.0000   YZ=              0.0000
 Octapole moment (field-independent basis, Debye-Ang**2):
  XXX=              0.0000  YYY=              0.0000  ZZZ=              0.0000  XYY=              0.0000
  XXY=              0.0000  XXZ=              0.0000  XZZ=              0.0000  YZZ=              0.0000
  YYZ=              0.0000  XYZ=             -8.6859
 Hexadecapole moment (field-independent basis, Debye-Ang**3):
 XXXX=           -538.8420 YYYY=           -538.8420 ZZZZ=          -2014.7353 XXXY=              0.0000
 XXXZ=             -0.0000 YYYX=              0.0000 YYYZ=              0.0000 ZZZX=             -0.0000
 ZZZY=              0.0000 XXYY=           -183.8388 XXZZ=           -429.0999 YYZZ=           -429.0999
 XXYZ=              0.0000 YYXZ=              0.0000 ZZXY=              0.0000
 N-N= 2.861617546101D+02 E-N=-1.726397020613D+03  KE= 4.054489473080D+02
 Symmetry A    KE= 1.192132853875D+02
 Symmetry B1   KE= 9.589254821085D+01
 Symmetry B2   KE= 9.517155686203D+01
 Symmetry B3   KE= 9.517155684756D+01
 No NMR shielding tensors so no spin-rotation constants.
 Leave Link  601 at Sat Oct 18 14:23:07 2025, MaxMem=  4294967296 cpu:               0.4 elap:               0.1
 (Enter /opt/modules/software/gaussian/G16-C01/l108.exe)
 Variable Step   Value    
 -------- ---- -----------
     1       1    2.929075
 Leave Link  108 at Sat Oct 18 14:23:07 2025, MaxMem=  4294967296 cpu:               0.0 elap:               0.0
 (Enter /opt/modules/software/gaussian/G16-C01/l202.exe)
 ---------------------------------------------------------------------------------------------------
                            Z-MATRIX (ANGSTROMS AND DEGREES)
   CD    Cent   Atom    N1       Length/X        N2       Alpha/Y        N3        Beta/Z          J
 ---------------------------------------------------------------------------------------------------
      1      1  Ni
      2      2  O        1   1.550000(     1)
      3      3  O        1   1.550000(     2)      2  109.471(     5)
      4      4  O        1   1.550000(     3)      3  109.471(     6)      2 -120.000(     8)      0
      5      5  O        1   1.550000(     4)      4  109.471(     7)      3  120.000(     9)      0
 ---------------------------------------------------------------------------------------------------
                         Z-Matrix orientation:                         
 ---------------------------------------------------------------------
 Center     Atomic      Atomic             Coordinates (Angstroms)
 Number     Number       Type             X           Y           Z
 ---------------------------------------------------------------------
      1         28           0        0.000000    0.000000    0.000000
      2          8           0        0.000000    0.000000    1.550000
      3          8           0        1.461354    0.000000   -0.516667
      4          8           0       -0.730677   -1.265570   -0.516667
      5          8           0       -0.730677    1.265570   -0.516667
 ---------------------------------------------------------------------
                    Distance matrix (angstroms):
                    1          2          3          4          5
     1  Ni   0.000000
     2  O    1.550000   0.000000
     3  O    1.550000   2.531139   0.000000
     4  O    1.550000   2.531139   2.531139   0.000000
     5  O    1.550000   2.531139   2.531139   2.531139   0.000000
 Stoichiometry    NiO4(4-)
 Framework group  TD[O(Ni),4C3(O)]
 Deg. of freedom     1
 Full point group                 TD      NOp  24
 RotChk:  IX=0 Diff= 1.10D-15
 Largest Abelian subgroup         D2      NOp   4
 Largest concise Abelian subgroup D2      NOp   4
                         Standard orientation:                         
 ---------------------------------------------------------------------
 Center     Atomic      Atomic             Coordinates (Angstroms)
 Number     Number       Type             X           Y           Z
 ---------------------------------------------------------------------
      1         28           0        0.000000    0.000000    0.000000
      2          8           0        0.894893    0.894893    0.894893
      3          8           0       -0.894893   -0.894893    0.894893
      4          8           0       -0.894893    0.894893   -0.894893
      5          8           0        0.894893   -0.894893   -0.894893
 ---------------------------------------------------------------------
 Rotational constants (GHZ):           4.9317737           4.9317737           4.9317737
 Leave Link  202 at Sat Oct 18 14:23:07 2025, MaxMem=  4294967296 cpu:               0.0 elap:               0.0
 (Enter /opt/modules/software/gaussian/G16-C01/l301.exe)
 Basis read from rwf:  (5D, 7F)
 Pseudo-potential data read from rwf file.
 There are    18 symmetry adapted cartesian basis functions of A   symmetry.
 There are    14 symmetry adapted cartesian basis functions of B1  symmetry.
 There are    14 symmetry adapted cartesian basis functions of B2  symmetry.
 There are    14 symmetry adapted cartesian basis functions of B3  symmetry.
 There are    16 symmetry adapted basis functions of A   symmetry.
 There are    14 symmetry adapted basis functions of B1  symmetry.
 There are    14 symmetry adapted basis functions of B2  symmetry.
 There are    14 symmetry adapted basis functions of B3  symmetry.
    58 basis functions,   152 primitive gaussians,    60 cartesian basis functions
    27 alpha electrons       27 beta electrons
       nuclear repulsion energy       276.9307302679 Hartrees.
 IExCor= 1009 DFT=T Ex+Corr=PBE1PBE ExCW=0 ScaHFX=  0.250000
 ScaDFX=  0.750000  0.750000  1.000000  1.000000 ScalE2=  1.000000  1.000000
 IRadAn=      5 IRanWt=     -1 IRanGd=            0 ICorTp=0 IEmpDi=  4
 NAtoms=    5 NActive=    5 NUniq=    2 SFac= 4.00D+00 NAtFMM=   60 NAOKFM=F Big=F
 Integral buffers will be    131072 words long.
 Raffenetti 2 integral format.
 Two-electron integral symmetry is turned on.
 No density basis found on file    724.
 Leave Link  301 at Sat Oct 18 14:23:07 2025, MaxMem=  4294967296 cpu:               0.2 elap:               0.0
 (Enter /opt/modules/software/gaussian/G16-C01/l302.exe)
 NPDir=0 NMtPBC=     1 NCelOv=     1 NCel=       1 NClECP=     1 NCelD=      1
         NCelK=      1 NCelE2=     1 NClLst=     1 CellRange=     0.0.
 One-electron integrals computed using PRISM.
 One-electron integral symmetry used in STVInt
  24 Symmetry operations used in ECPInt.
 ECPInt:  NShTT=     406 NPrTT=    3130 LenC2=     407 LenP2D=    2448.
 LDataN:  DoStor=T MaxTD1= 4 Len=   56
 NBasis=    58 RedAO= T EigKep=  1.20D-02  NBF=    16    14    14    14
 NBsUse=    58 1.00D-06 EigRej= -1.00D+00 NBFU=    16    14    14    14
 Precomputing XC quadrature grid using
 IXCGrd= 4 IRadAn=           5 IRanWt=          -1 IRanGd=           0 AccXCQ= 0.00D+00.
 Generated NRdTot=       0 NPtTot=           0 NUsed=           0 NTot=          32
 NSgBfM=    60    60    60    60    60 MxSgAt=     5 MxSgA2=     5.
 Leave Link  302 at Sat Oct 18 14:23:07 2025, MaxMem=  4294967296 cpu:               0.6 elap:               0.1
 (Enter /opt/modules/software/gaussian/G16-C01/l303.exe)
 DipDrv:  MaxL=1.
 Leave Link  303 at Sat Oct 18 14:23:07 2025, MaxMem=  4294967296 cpu:               0.1 elap:               0.0
 (Enter /opt/modules/software/gaussian/G16-C01/l401.exe)
 Initial guess from the checkpoint file:  "/home/futera/Documents/2025-nife2o4-params/bond-parameters/pbe0-lanl2dz/Gau-3760346.chk"
 B after Tr=     0.000000   -0.000000    0.000000
         Rot=    1.000000   -0.000000    0.000000    0.000000 Ang=   0.00 deg.
 Guess basis will be translated and rotated to current coordinates.
 JPrj=2 DoOrth=T DoCkMO=T.
 Initial guess orbital symmetries:
       Occupied  (T2) (T2) (T2) (A1) (A1) (T2) (T2) (T2) (A1) (?A)
                 (?A) (?A) (E) (E) (?A) (?A) (?A) (?B) (?A) (?A)
                 (?A) (?A) (?A) (?A) (?B) (?B) (?A)
       Virtual   (?A) (?A) (?A) (?A) (?A) (?B) (?A) (?A) (?A) (?B)
                 (?B) (?B) (?A) (?A) (?A) (?A) (?A) (?A) (?A) (?A)
                 (?A) (?B) (?B) (?A) (?A) (?A) (?B) (?A) (?A) (?A)
                 (A1)
 Generating alternative initial guess.
 ExpMin= 2.40D-02 ExpMax= 7.82D+03 ExpMxC= 2.73D+02 IAcc=3 IRadAn=         5 AccDes= 0.00D+00
 Harris functional with IExCor= 1009 and IRadAn=       5 diagonalized for initial guess.
 HarFok:  IExCor= 1009 AccDes= 0.00D+00 IRadAn=         5 IDoV= 1 UseB2=F ITyADJ=14
 ICtDFT=  3500011 ScaDFX=  1.000000  1.000000  1.000000  1.000000
 FoFCou: FMM=F IPFlag=           0 FMFlag=      100000 FMFlg1=           0
         NFxFlg=           0 DoJE=T BraDBF=F KetDBF=T FulRan=T
         wScrn=  0.000000 ICntrl=       500 IOpCl=  0 I1Cent=   200000004 NGrid=           0
         NMat0=    1 NMatS0=      1 NMatT0=    0 NMatD0=    1 NMtDS0=    0 NMtDT0=    0
 Petite list used in FoFCou.
 Harris En= -470.976414667753    
 Leave Link  401 at Sat Oct 18 14:23:07 2025, MaxMem=  4294967296 cpu:               0.8 elap:               0.1
 (Enter /opt/modules/software/gaussian/G16-C01/l502.exe)
 Keep R1 ints in memory in symmetry-blocked form, NReq=8551516.
 FoFCou: FMM=F IPFlag=           0 FMFlag=           0 FMFlg1=           0
         NFxFlg=           0 DoJE=F BraDBF=F KetDBF=F FulRan=T
         wScrn=  0.000000 ICntrl=       600 IOpCl=  0 I1Cent=           0 NGrid=           0
         NMat0=    1 NMatS0=   1711 NMatT0=    0 NMatD0=    1 NMtDS0=    0 NMtDT0=    0
 Petite list used in FoFCou.
 Closed shell SCF:
 Using DIIS extrapolation, IDIIS=  1040.
 NGot=  4294967296 LenX=  4294585980 LenY=  4294581939
 Requested convergence on RMS density matrix=1.00D-08 within  20 cycles.
 Requested convergence on MAX density matrix=1.00D-06.
 Requested convergence on             energy=1.00D-06.
 No special actions if energy rises.

 Cycle   1  Pass 1  IDiag  1:
 Density matrix breaks symmetry, PCut= 1.00D-04
 Density has only Abelian symmetry.
 E= -468.685951135074    
 DIIS: error= 2.04D-02 at cycle   1 NSaved=   1.
 NSaved= 1 IEnMin= 1 EnMin= -468.685951135074     IErMin= 1 ErrMin= 2.04D-02
 ErrMax= 2.04D-02  0.00D+00 EMaxC= 1.00D-01 BMatC= 5.31D-03 BMatP= 5.31D-03
 IDIUse=3 WtCom= 7.96D-01 WtEn= 2.04D-01
 Coeff-Com:  0.100D+01
 Coeff-En:   0.100D+01
 Coeff:      0.100D+01
 Recover alternate guess density for next cycle.
 RMSDP=4.84D-02 MaxDP=1.71D+00              OVMax= 0.00D+00

 Cycle   2  Pass 1  IDiag  1:
 Density matrix breaks symmetry, PCut= 1.00D-04
 Density has only Abelian symmetry.
 E= -466.766948708812     Delta-E=        1.919002426262 Rises=F Damp=F
 Switch densities from cycles 1 and 2 for lowest energy.
 DIIS: error= 1.63D-01 at cycle   2 NSaved=   2.
 NSaved= 2 IEnMin= 1 EnMin= -468.685951135074     IErMin= 1 ErrMin= 2.04D-02
 ErrMax= 1.63D-01  0.00D+00 EMaxC= 1.00D+00 BMatC= 2.04D+00 BMatP= 5.31D-03
 IDIUse=1 WtCom= 1.00D+00 WtEn= 0.00D+00
 Coeff-Com:  0.101D+01-0.130D-01
 Coeff:      0.101D+01-0.130D-01
 Gap=     0.024 Goal=   None    Shift=    0.000
 RMSDP=2.25D-03 MaxDP=2.88D-02 DE= 1.92D+00 OVMax= 1.13D-02

 Cycle   3  Pass 1  IDiag  1:
 Density matrix breaks symmetry, PCut= 1.00D-04
 Density has only Abelian symmetry.
 E= -468.687970709738     Delta-E=       -1.921022000926 Rises=F Damp=F
 DIIS: error= 5.20D-03 at cycle   3 NSaved=   3.
 NSaved= 3 IEnMin= 3 EnMin= -468.687970709738     IErMin= 3 ErrMin= 5.20D-03
 ErrMax= 5.20D-03  0.00D+00 EMaxC= 1.00D+00 BMatC= 1.71D-03 BMatP= 5.31D-03
 IDIUse=1 WtCom= 1.00D+00 WtEn= 0.00D+00
 Coeff-Com:  0.192D+00 0.107D-01 0.797D+00
 Coeff:      0.192D+00 0.107D-01 0.797D+00
 Gap=     0.024 Goal=   None    Shift=    0.000
 RMSDP=1.66D-03 MaxDP=2.66D-02 DE=-1.92D+00 OVMax= 2.87D-02

 Cycle   4  Pass 1  IDiag  1:
 Density matrix breaks symmetry, PCut= 1.00D-04
 Density has only Abelian symmetry.
 E= -468.683566635174     Delta-E=        0.004404074564 Rises=F Damp=F
 DIIS: error= 1.20D-02 at cycle   4 NSaved=   4.
 NSaved= 4 IEnMin= 3 EnMin= -468.687970709738     IErMin= 3 ErrMin= 5.20D-03
 ErrMax= 1.20D-02  0.00D+00 EMaxC= 1.00D+00 BMatC= 8.45D-03 BMatP= 1.71D-03
 IDIUse=1 WtCom= 1.00D+00 WtEn= 0.00D+00
 Coeff-Com: -0.399D-02 0.181D-02 0.702D+00 0.300D+00
 Coeff:     -0.399D-02 0.181D-02 0.702D+00 0.300D+00
 Gap=     0.024 Goal=   None    Shift=    0.000
 RMSDP=1.15D-03 MaxDP=1.86D-02 DE= 4.40D-03 OVMax= 1.79D-02

 Cycle   5  Pass 1  IDiag  1:
 Density matrix breaks symmetry, PCut= 1.00D-04
 Density has only Abelian symmetry.
 E= -468.689118445520     Delta-E=       -0.005551810346 Rises=F Damp=F
 DIIS: error= 2.86D-04 at cycle   5 NSaved=   5.
 NSaved= 5 IEnMin= 5 EnMin= -468.689118445520     IErMin= 5 ErrMin= 2.86D-04
 ErrMax= 2.86D-04  0.00D+00 EMaxC= 1.00D+00 BMatC= 5.84D-06 BMatP= 1.71D-03
 IDIUse=1 WtCom= 1.00D+00 WtEn= 0.00D+00
 Coeff-Com: -0.347D-02-0.228D-03 0.115D+00 0.339D-01 0.855D+00
 Coeff:     -0.347D-02-0.228D-03 0.115D+00 0.339D-01 0.855D+00
 Gap=     0.024 Goal=   None    Shift=    0.000
 RMSDP=5.33D-05 MaxDP=8.65D-04 DE=-5.55D-03 OVMax= 4.07D-04

 Cycle   6  Pass 1  IDiag  1:
 Density matrix breaks symmetry, PCut= 1.00D-04
 Density has only Abelian symmetry.
 E= -468.689122966034     Delta-E=       -0.000004520514 Rises=F Damp=F
 DIIS: error= 1.74D-05 at cycle   6 NSaved=   6.
 NSaved= 6 IEnMin= 6 EnMin= -468.689122966034     IErMin= 6 ErrMin= 1.74D-05
 ErrMax= 1.74D-05  0.00D+00 EMaxC= 1.00D+00 BMatC= 1.69D-08 BMatP= 5.84D-06
 IDIUse=1 WtCom= 1.00D+00 WtEn= 0.00D+00
 Coeff-Com:  0.172D-03-0.502D-04-0.159D-01-0.475D-02-0.448D-01 0.107D+01
 Coeff:      0.172D-03-0.502D-04-0.159D-01-0.475D-02-0.448D-01 0.107D+01
 Gap=     0.024 Goal=   None    Shift=    0.000
 RMSDP=8.59D-06 MaxDP=1.02D-04 DE=-4.52D-06 OVMax= 1.55D-04

 Cycle   7  Pass 1  IDiag  1:
 Density matrix breaks symmetry, PCut= 1.00D-04
 Density has only Abelian symmetry.
 E= -468.689123024063     Delta-E=       -0.000000058028 Rises=F Damp=F
 DIIS: error= 7.00D-06 at cycle   7 NSaved=   7.
 NSaved= 7 IEnMin= 7 EnMin= -468.689123024063     IErMin= 7 ErrMin= 7.00D-06
 ErrMax= 7.00D-06  0.00D+00 EMaxC= 1.00D+00 BMatC= 2.39D-09 BMatP= 1.69D-08
 IDIUse=1 WtCom= 1.00D+00 WtEn= 0.00D+00
 Coeff-Com:  0.378D-04 0.696D-05 0.959D-03 0.814D-04-0.170D-01-0.154D+00
 Coeff-Com:  0.117D+01
 Coeff:      0.378D-04 0.696D-05 0.959D-03 0.814D-04-0.170D-01-0.154D+00
 Coeff:      0.117D+01
 Gap=     0.024 Goal=   None    Shift=    0.000
 RMSDP=2.53D-06 MaxDP=3.94D-05 DE=-5.80D-08 OVMax= 3.90D-05

 Cycle   8  Pass 1  IDiag  1:
 Density matrix breaks symmetry, PCut= 1.00D-04
 Density has only Abelian symmetry.
 E= -468.689123028259     Delta-E=       -0.000000004197 Rises=F Damp=F
 DIIS: error= 1.44D-06 at cycle   8 NSaved=   8.
 NSaved= 8 IEnMin= 8 EnMin= -468.689123028259     IErMin= 8 ErrMin= 1.44D-06
 ErrMax= 1.44D-06  0.00D+00 EMaxC= 1.00D+00 BMatC= 1.12D-10 BMatP= 2.39D-09
 IDIUse=1 WtCom= 1.00D+00 WtEn= 0.00D+00
 Coeff-Com: -0.717D-05 0.168D-05-0.209D-03-0.150D-04 0.530D-02 0.123D-01
 Coeff-Com: -0.193D+00 0.118D+01
 Coeff:     -0.717D-05 0.168D-05-0.209D-03-0.150D-04 0.530D-02 0.123D-01
 Coeff:     -0.193D+00 0.118D+01
 Gap=     0.024 Goal=   None    Shift=    0.000
 RMSDP=6.42D-07 MaxDP=5.53D-06 DE=-4.20D-09 OVMax= 1.82D-05

 Cycle   9  Pass 1  IDiag  1:
 Density matrix breaks symmetry, PCut= 1.00D-04
 Density has only Abelian symmetry.
 E= -468.689123028459     Delta-E=       -0.000000000199 Rises=F Damp=F
 DIIS: error= 3.83D-07 at cycle   9 NSaved=   9.
 NSaved= 9 IEnMin= 9 EnMin= -468.689123028459     IErMin= 9 ErrMin= 3.83D-07
 ErrMax= 3.83D-07  0.00D+00 EMaxC= 1.00D+00 BMatC= 9.26D-12 BMatP= 1.12D-10
 IDIUse=1 WtCom= 1.00D+00 WtEn= 0.00D+00
 Coeff-Com:  0.130D-05-0.346D-06-0.307D-04 0.177D-04-0.529D-03 0.486D-03
 Coeff-Com:  0.857D-04-0.235D+00 0.123D+01
 Coeff:      0.130D-05-0.346D-06-0.307D-04 0.177D-04-0.529D-03 0.486D-03
 Coeff:      0.857D-04-0.235D+00 0.123D+01
 Gap=     0.024 Goal=   None    Shift=    0.000
 RMSDP=3.57D-07 MaxDP=3.09D-06 DE=-1.99D-10 OVMax= 1.03D-05

 Cycle  10  Pass 1  IDiag  1:
 Density matrix breaks symmetry, PCut= 1.00D-04
 Density has only Abelian symmetry.
 E= -468.689123028491     Delta-E=       -0.000000000032 Rises=F Damp=F
 DIIS: error= 6.85D-08 at cycle  10 NSaved=  10.
 NSaved=10 IEnMin=10 EnMin= -468.689123028491     IErMin=10 ErrMin= 6.85D-08
 ErrMax= 6.85D-08  0.00D+00 EMaxC= 1.00D+00 BMatC= 3.76D-13 BMatP= 9.26D-12
 IDIUse=1 WtCom= 1.00D+00 WtEn= 0.00D+00
 Coeff-Com: -0.879D-06 0.402D-07 0.439D-04-0.115D-04 0.143D-03-0.493D-03
 Coeff-Com:  0.367D-02 0.110D+00-0.855D+00 0.174D+01
 Coeff:     -0.879D-06 0.402D-07 0.439D-04-0.115D-04 0.143D-03-0.493D-03
 Coeff:      0.367D-02 0.110D+00-0.855D+00 0.174D+01
 Gap=     0.024 Goal=   None    Shift=    0.000
 RMSDP=2.42D-07 MaxDP=2.12D-06 DE=-3.22D-11 OVMax= 6.75D-06

 Cycle  11  Pass 1  IDiag  1:
 Density matrix breaks symmetry, PCut= 1.00D-04
 Density has only Abelian symmetry.
 E= -468.689123028496     Delta-E=       -0.000000000005 Rises=F Damp=F
 DIIS: error= 1.30D-08 at cycle  11 NSaved=  11.
 NSaved=11 IEnMin=11 EnMin= -468.689123028496     IErMin=11 ErrMin= 1.30D-08
 ErrMax= 1.30D-08  0.00D+00 EMaxC= 1.00D+00 BMatC= 1.80D-14 BMatP= 3.76D-13
 IDIUse=1 WtCom= 1.00D+00 WtEn= 0.00D+00
 Coeff-Com:  0.199D-06 0.124D-07-0.146D-04-0.157D-05-0.150D-04 0.498D-03
 Coeff-Com: -0.143D-03-0.280D-01 0.131D+00-0.366D+00 0.126D+01
 Coeff:      0.199D-06 0.124D-07-0.146D-04-0.157D-05-0.150D-04 0.498D-03
 Coeff:     -0.143D-03-0.280D-01 0.131D+00-0.366D+00 0.126D+01
 Gap=     0.024 Goal=   None    Shift=    0.000
 RMSDP=5.29D-08 MaxDP=4.68D-07 DE=-5.46D-12 OVMax= 1.40D-06

 Cycle  12  Pass 1  IDiag  1:
 Density matrix breaks symmetry, PCut= 1.00D-04
 Density has only Abelian symmetry.
 E= -468.689123028497     Delta-E=       -0.000000000001 Rises=F Damp=F
 DIIS: error= 2.92D-09 at cycle  12 NSaved=  12.
 NSaved=12 IEnMin=12 EnMin= -468.689123028497     IErMin=12 ErrMin= 2.92D-09
 ErrMax= 2.92D-09  0.00D+00 EMaxC= 1.00D+00 BMatC= 5.31D-16 BMatP= 1.80D-14
 IDIUse=1 WtCom= 1.00D+00 WtEn= 0.00D+00
 Coeff-Com: -0.292D-07-0.252D-08 0.321D-05 0.648D-06 0.209D-05-0.151D-03
 Coeff-Com: -0.698D-04 0.748D-02-0.283D-01 0.842D-01-0.467D+00 0.140D+01
 Coeff:     -0.292D-07-0.252D-08 0.321D-05 0.648D-06 0.209D-05-0.151D-03
 Coeff:     -0.698D-04 0.748D-02-0.283D-01 0.842D-01-0.467D+00 0.140D+01
 Gap=     0.024 Goal=   None    Shift=    0.000
 RMSDP=1.09D-08 MaxDP=9.74D-08 DE=-7.96D-13 OVMax= 2.63D-07

 Cycle  13  Pass 1  IDiag  1:
 Density matrix breaks symmetry, PCut= 1.00D-04
 Density has only Abelian symmetry.
 E= -468.689123028497     Delta-E=       -0.000000000000 Rises=F Damp=F
 DIIS: error= 5.15D-10 at cycle  13 NSaved=  13.
 NSaved=13 IEnMin=13 EnMin= -468.689123028497     IErMin=13 ErrMin= 5.15D-10
 ErrMax= 5.15D-10  0.00D+00 EMaxC= 1.00D+00 BMatC= 1.66D-17 BMatP= 5.31D-16
 IDIUse=1 WtCom= 1.00D+00 WtEn= 0.00D+00
 Large coefficients: NSaved= 13 BigCof=    0.00 CofMax=   10.00 Det=-1.06D-17
 Inversion failed.  Reducing to 12 matrices.
 Coeff-Com:  0.390D-08-0.621D-06-0.110D-06-0.364D-06 0.313D-04 0.151D-04
 Coeff-Com: -0.175D-02 0.743D-02-0.230D-01 0.122D+00-0.443D+00 0.134D+01
 Coeff:      0.390D-08-0.621D-06-0.110D-06-0.364D-06 0.313D-04 0.151D-04
 Coeff:     -0.175D-02 0.743D-02-0.230D-01 0.122D+00-0.443D+00 0.134D+01
 Gap=     0.024 Goal=   None    Shift=    0.000
 RMSDP=1.31D-09 MaxDP=1.10D-08 DE=-3.41D-13 OVMax= 3.16D-08

 Density matrix breaks symmetry, PCut= 1.00D-04
 Density has only Abelian symmetry.
 SCF Done:  E(RPBE1PBE) =  -468.689123028     A.U. after   13 cycles
            NFock= 13  Conv=0.13D-08     -V/T= 2.1577
 KE= 4.048594423457D+02 PE=-1.707680749166D+03 EE= 5.572014535244D+02
 Leave Link  502 at Sat Oct 18 14:23:07 2025, MaxMem=  4294967296 cpu:               2.5 elap:               0.3
 (Enter /opt/modules/software/gaussian/G16-C01/l508.exe)
 QCSCF skips out because SCF is already converged.
 Leave Link  508 at Sat Oct 18 14:23:07 2025, MaxMem=  4294967296 cpu:               0.0 elap:               0.0
 (Enter /opt/modules/software/gaussian/G16-C01/l108.exe)
 Variable Step   Value    
 -------- ---- -----------
     1       2    3.023562
 Leave Link  108 at Sat Oct 18 14:23:07 2025, MaxMem=  4294967296 cpu:               0.0 elap:               0.0
 (Enter /opt/modules/software/gaussian/G16-C01/l202.exe)
 ---------------------------------------------------------------------------------------------------
                            Z-MATRIX (ANGSTROMS AND DEGREES)
   CD    Cent   Atom    N1       Length/X        N2       Alpha/Y        N3        Beta/Z          J
 ---------------------------------------------------------------------------------------------------
      1      1  Ni
      2      2  O        1   1.600000(     1)
      3      3  O        1   1.600000(     2)      2  109.471(     5)
      4      4  O        1   1.600000(     3)      3  109.471(     6)      2 -120.000(     8)      0
      5      5  O        1   1.600000(     4)      4  109.471(     7)      3  120.000(     9)      0
 ---------------------------------------------------------------------------------------------------
                         Z-Matrix orientation:                         
 ---------------------------------------------------------------------
 Center     Atomic      Atomic             Coordinates (Angstroms)
 Number     Number       Type             X           Y           Z
 ---------------------------------------------------------------------
      1         28           0        0.000000    0.000000    0.000000
      2          8           0        0.000000    0.000000    1.600000
      3          8           0        1.508494    0.000000   -0.533333
      4          8           0       -0.754247   -1.306395   -0.533333
      5          8           0       -0.754247    1.306395   -0.533333
 ---------------------------------------------------------------------
                    Distance matrix (angstroms):
                    1          2          3          4          5
     1  Ni   0.000000
     2  O    1.600000   0.000000
     3  O    1.600000   2.612789   0.000000
     4  O    1.600000   2.612789   2.612789   0.000000
     5  O    1.600000   2.612789   2.612789   2.612789   0.000000
 Stoichiometry    NiO4(4-)
 Framework group  TD[O(Ni),4C3(O)]
 Deg. of freedom     1
 Full point group                 TD      NOp  24
 RotChk:  IX=0 Diff= 7.79D-16
 Largest Abelian subgroup         D2      NOp   4
 Largest concise Abelian subgroup D2      NOp   4
                         Standard orientation:                         
 ---------------------------------------------------------------------
 Center     Atomic      Atomic             Coordinates (Angstroms)
 Number     Number       Type             X           Y           Z
 ---------------------------------------------------------------------
      1         28           0        0.000000    0.000000    0.000000
      2          8           0        0.923760    0.923760    0.923760
      3          8           0       -0.923760   -0.923760    0.923760
      4          8           0       -0.923760    0.923760   -0.923760
      5          8           0        0.923760   -0.923760   -0.923760
 ---------------------------------------------------------------------
 Rotational constants (GHZ):           4.6283541           4.6283541           4.6283541
 Leave Link  202 at Sat Oct 18 14:23:07 2025, MaxMem=  4294967296 cpu:               0.0 elap:               0.0
 (Enter /opt/modules/software/gaussian/G16-C01/l301.exe)
 Basis read from rwf:  (5D, 7F)
 Pseudo-potential data read from rwf file.
 There are    18 symmetry adapted cartesian basis functions of A   symmetry.
 There are    14 symmetry adapted cartesian basis functions of B1  symmetry.
 There are    14 symmetry adapted cartesian basis functions of B2  symmetry.
 There are    14 symmetry adapted cartesian basis functions of B3  symmetry.
 There are    16 symmetry adapted basis functions of A   symmetry.
 There are    14 symmetry adapted basis functions of B1  symmetry.
 There are    14 symmetry adapted basis functions of B2  symmetry.
 There are    14 symmetry adapted basis functions of B3  symmetry.
    58 basis functions,   152 primitive gaussians,    60 cartesian basis functions
    27 alpha electrons       27 beta electrons
       nuclear repulsion energy       268.2766449470 Hartrees.
 IExCor= 1009 DFT=T Ex+Corr=PBE1PBE ExCW=0 ScaHFX=  0.250000
 ScaDFX=  0.750000  0.750000  1.000000  1.000000 ScalE2=  1.000000  1.000000
 IRadAn=      5 IRanWt=     -1 IRanGd=            0 ICorTp=0 IEmpDi=  4
 NAtoms=    5 NActive=    5 NUniq=    2 SFac= 4.00D+00 NAtFMM=   60 NAOKFM=F Big=F
 Integral buffers will be    131072 words long.
 Raffenetti 2 integral format.
 Two-electron integral symmetry is turned on.
 No density basis found on file    724.
 Leave Link  301 at Sat Oct 18 14:23:07 2025, MaxMem=  4294967296 cpu:               0.2 elap:               0.0
 (Enter /opt/modules/software/gaussian/G16-C01/l302.exe)
 NPDir=0 NMtPBC=     1 NCelOv=     1 NCel=       1 NClECP=     1 NCelD=      1
         NCelK=      1 NCelE2=     1 NClLst=     1 CellRange=     0.0.
 One-electron integrals computed using PRISM.
 One-electron integral symmetry used in STVInt
  24 Symmetry operations used in ECPInt.
 ECPInt:  NShTT=     406 NPrTT=    3130 LenC2=     407 LenP2D=    2408.
 LDataN:  DoStor=T MaxTD1= 4 Len=   56
 NBasis=    58 RedAO= T EigKep=  1.36D-02  NBF=    16    14    14    14
 NBsUse=    58 1.00D-06 EigRej= -1.00D+00 NBFU=    16    14    14    14
 Precomputing XC quadrature grid using
 IXCGrd= 4 IRadAn=           5 IRanWt=          -1 IRanGd=           0 AccXCQ= 0.00D+00.
 Generated NRdTot=       0 NPtTot=           0 NUsed=           0 NTot=          32
 NSgBfM=    60    60    60    60    60 MxSgAt=     5 MxSgA2=     5.
 Leave Link  302 at Sat Oct 18 14:23:08 2025, MaxMem=  4294967296 cpu:               0.6 elap:               0.1
 (Enter /opt/modules/software/gaussian/G16-C01/l303.exe)
 DipDrv:  MaxL=1.
 Leave Link  303 at Sat Oct 18 14:23:08 2025, MaxMem=  4294967296 cpu:               0.1 elap:               0.0
 (Enter /opt/modules/software/gaussian/G16-C01/l401.exe)
 Initial guess from the checkpoint file:  "/home/futera/Documents/2025-nife2o4-params/bond-parameters/pbe0-lanl2dz/Gau-3760346.chk"
 B after Tr=     0.000000    0.000000   -0.000000
         Rot=    1.000000    0.000000    0.000000   -0.000000 Ang=   0.00 deg.
 Guess basis will be translated and rotated to current coordinates.
 JPrj=2 DoOrth=T DoCkMO=T.
 Initial guess orbital symmetries:
       Occupied  (T2) (T2) (T2) (A1) (A1) (T2) (T2) (T2) (A1) (?A)
                 (?A) (?A) (E) (E) (?A) (?A) (?A) (?B) (?A) (?A)
                 (?A) (?A) (?A) (?A) (?B) (?B) (?A)
       Virtual   (?A) (?A) (?A) (?A) (?A) (?B) (?A) (?A) (?A) (T2)
                 (?A) (?A) (?A) (?B) (?B) (?A) (?A) (?A) (?A) (?A)
                 (?A) (T2) (T2) (?A) (?A) (?A) (?B) (?A) (?A) (?A)
                 (A1)
 Generating alternative initial guess.
 ExpMin= 2.40D-02 ExpMax= 7.82D+03 ExpMxC= 2.73D+02 IAcc=3 IRadAn=         5 AccDes= 0.00D+00
 Harris functional with IExCor= 1009 and IRadAn=       5 diagonalized for initial guess.
 HarFok:  IExCor= 1009 AccDes= 0.00D+00 IRadAn=         5 IDoV= 1 UseB2=F ITyADJ=14
 ICtDFT=  3500011 ScaDFX=  1.000000  1.000000  1.000000  1.000000
 FoFCou: FMM=F IPFlag=           0 FMFlag=      100000 FMFlg1=           0
         NFxFlg=           0 DoJE=T BraDBF=F KetDBF=T FulRan=T
         wScrn=  0.000000 ICntrl=       500 IOpCl=  0 I1Cent=   200000004 NGrid=           0
         NMat0=    1 NMatS0=      1 NMatT0=    0 NMatD0=    1 NMtDS0=    0 NMtDT0=    0
 Petite list used in FoFCou.
 Harris En= -471.030177601273    
 Leave Link  401 at Sat Oct 18 14:23:08 2025, MaxMem=  4294967296 cpu:               0.8 elap:               0.1
 (Enter /opt/modules/software/gaussian/G16-C01/l502.exe)
 Keep R1 ints in memory in symmetry-blocked form, NReq=8551516.
 FoFCou: FMM=F IPFlag=           0 FMFlag=           0 FMFlg1=           0
         NFxFlg=           0 DoJE=F BraDBF=F KetDBF=F FulRan=T
         wScrn=  0.000000 ICntrl=       600 IOpCl=  0 I1Cent=           0 NGrid=           0
         NMat0=    1 NMatS0=   1711 NMatT0=    0 NMatD0=    1 NMtDS0=    0 NMtDT0=    0
 Petite list used in FoFCou.
 Closed shell SCF:
 Using DIIS extrapolation, IDIIS=  1040.
 NGot=  4294967296 LenX=  4294585980 LenY=  4294581939
 Requested convergence on RMS density matrix=1.00D-08 within  20 cycles.
 Requested convergence on MAX density matrix=1.00D-06.
 Requested convergence on             energy=1.00D-06.
 No special actions if energy rises.

 Cycle   1  Pass 1  IDiag  1:
 Density matrix breaks symmetry, PCut= 1.00D-04
 Density has only Abelian symmetry.
 E= -468.728377691056    
 DIIS: error= 1.74D-02 at cycle   1 NSaved=   1.
 NSaved= 1 IEnMin= 1 EnMin= -468.728377691056     IErMin= 1 ErrMin= 1.74D-02
 ErrMax= 1.74D-02  0.00D+00 EMaxC= 1.00D-01 BMatC= 4.07D-03 BMatP= 4.07D-03
 IDIUse=3 WtCom= 8.26D-01 WtEn= 1.74D-01
 Coeff-Com:  0.100D+01
 Coeff-En:   0.100D+01
 Coeff:      0.100D+01
 Recover alternate guess density for next cycle.
 RMSDP=4.75D-02 MaxDP=1.68D+00              OVMax= 0.00D+00

 Cycle   2  Pass 1  IDiag  1:
 Density matrix breaks symmetry, PCut= 1.00D-04
 Density has only Abelian symmetry.
 E= -466.776581168902     Delta-E=        1.951796522154 Rises=F Damp=F
 Switch densities from cycles 1 and 2 for lowest energy.
 DIIS: error= 1.44D-01 at cycle   2 NSaved=   2.
 NSaved= 2 IEnMin= 1 EnMin= -468.728377691056     IErMin= 1 ErrMin= 1.74D-02
 ErrMax= 1.44D-01  0.00D+00 EMaxC= 1.00D+00 BMatC= 2.15D+00 BMatP= 4.07D-03
 IDIUse=1 WtCom= 1.00D+00 WtEn= 0.00D+00
 Coeff-Com:  0.101D+01-0.126D-01
 Coeff:      0.101D+01-0.126D-01
 Gap=     0.024 Goal=   None    Shift=    0.000
 RMSDP=2.60D-03 MaxDP=4.10D-02 DE= 1.95D+00 OVMax= 1.21D-02

 Cycle   3  Pass 1  IDiag  1:
 Density matrix breaks symmetry, PCut= 1.00D-04
 Density has only Abelian symmetry.
 E= -468.729653118020     Delta-E=       -1.953071949118 Rises=F Damp=F
 DIIS: error= 5.89D-03 at cycle   3 NSaved=   3.
 NSaved= 3 IEnMin= 3 EnMin= -468.729653118020     IErMin= 3 ErrMin= 5.89D-03
 ErrMax= 5.89D-03  0.00D+00 EMaxC= 1.00D+00 BMatC= 2.29D-03 BMatP= 4.07D-03
 IDIUse=1 WtCom= 1.00D+00 WtEn= 0.00D+00
 Coeff-Com:  0.298D+00 0.918D-02 0.693D+00
 Coeff:      0.298D+00 0.918D-02 0.693D+00
 Gap=     0.024 Goal=   None    Shift=    0.000
 RMSDP=1.95D-03 MaxDP=3.29D-02 DE=-1.95D+00 OVMax= 3.04D-02

 Cycle   4  Pass 1  IDiag  1:
 Density matrix breaks symmetry, PCut= 1.00D-04
 Density has only Abelian symmetry.
 E= -468.725504969640     Delta-E=        0.004148148380 Rises=F Damp=F
 DIIS: error= 1.10D-02 at cycle   4 NSaved=   4.
 NSaved= 4 IEnMin= 3 EnMin= -468.729653118020     IErMin= 3 ErrMin= 5.89D-03
 ErrMax= 1.10D-02  0.00D+00 EMaxC= 1.00D+00 BMatC= 8.61D-03 BMatP= 2.29D-03
 IDIUse=1 WtCom= 1.00D+00 WtEn= 0.00D+00
 Coeff-Com: -0.367D-02 0.145D-02 0.669D+00 0.333D+00
 Coeff:     -0.367D-02 0.145D-02 0.669D+00 0.333D+00
 Gap=     0.025 Goal=   None    Shift=    0.000
 RMSDP=1.31D-03 MaxDP=2.28D-02 DE= 4.15D-03 OVMax= 1.77D-02

 Cycle   5  Pass 1  IDiag  1:
 Density matrix breaks symmetry, PCut= 1.00D-04
 Density has only Abelian symmetry.
 E= -468.731208876774     Delta-E=       -0.005703907134 Rises=F Damp=F
 DIIS: error= 3.43D-04 at cycle   5 NSaved=   5.
 NSaved= 5 IEnMin= 5 EnMin= -468.731208876774     IErMin= 5 ErrMin= 3.43D-04
 ErrMax= 3.43D-04  0.00D+00 EMaxC= 1.00D+00 BMatC= 8.92D-06 BMatP= 2.29D-03
 IDIUse=1 WtCom= 1.00D+00 WtEn= 0.00D+00
 Coeff-Com: -0.462D-02-0.366D-03 0.140D+00 0.531D-01 0.812D+00
 Coeff:     -0.462D-02-0.366D-03 0.140D+00 0.531D-01 0.812D+00
 Gap=     0.025 Goal=   None    Shift=    0.000
 RMSDP=6.38D-05 MaxDP=1.21D-03 DE=-5.70D-03 OVMax= 3.77D-04

 Cycle   6  Pass 1  IDiag  1:
 Density matrix breaks symmetry, PCut= 1.00D-04
 Density has only Abelian symmetry.
 E= -468.731215737249     Delta-E=       -0.000006860476 Rises=F Damp=F
 DIIS: error= 3.58D-05 at cycle   6 NSaved=   6.
 NSaved= 6 IEnMin= 6 EnMin= -468.731215737249     IErMin= 6 ErrMin= 3.58D-05
 ErrMax= 3.58D-05  0.00D+00 EMaxC= 1.00D+00 BMatC= 7.69D-08 BMatP= 8.92D-06
 IDIUse=1 WtCom= 1.00D+00 WtEn= 0.00D+00
 Coeff-Com:  0.432D-03-0.495D-04-0.247D-01-0.114D-01-0.129D+00 0.116D+01
 Coeff:      0.432D-03-0.495D-04-0.247D-01-0.114D-01-0.129D+00 0.116D+01
 Gap=     0.025 Goal=   None    Shift=    0.000
 RMSDP=1.60D-05 MaxDP=2.46D-04 DE=-6.86D-06 OVMax= 2.47D-04

 Cycle   7  Pass 1  IDiag  1:
 Density matrix breaks symmetry, PCut= 1.00D-04
 Density has only Abelian symmetry.
 E= -468.731215895144     Delta-E=       -0.000000157895 Rises=F Damp=F
 DIIS: error= 9.24D-06 at cycle   7 NSaved=   7.
 NSaved= 7 IEnMin= 7 EnMin= -468.731215895144     IErMin= 7 ErrMin= 9.24D-06
 ErrMax= 9.24D-06  0.00D+00 EMaxC= 1.00D+00 BMatC= 4.45D-09 BMatP= 7.69D-08
 IDIUse=1 WtCom= 1.00D+00 WtEn= 0.00D+00
 Coeff-Com:  0.627D-04 0.132D-04 0.128D-03-0.195D-03-0.127D-01-0.101D+00
 Coeff-Com:  0.111D+01
 Coeff:      0.627D-04 0.132D-04 0.128D-03-0.195D-03-0.127D-01-0.101D+00
 Coeff:      0.111D+01
 Gap=     0.025 Goal=   None    Shift=    0.000
 RMSDP=4.06D-06 MaxDP=6.08D-05 DE=-1.58D-07 OVMax= 6.13D-05

 Cycle   8  Pass 1  IDiag  1:
 Density matrix breaks symmetry, PCut= 1.00D-04
 Density has only Abelian symmetry.
 E= -468.731215903500     Delta-E=       -0.000000008356 Rises=F Damp=F
 DIIS: error= 3.88D-06 at cycle   8 NSaved=   8.
 NSaved= 8 IEnMin= 8 EnMin= -468.731215903500     IErMin= 8 ErrMin= 3.88D-06
 ErrMax= 3.88D-06  0.00D+00 EMaxC= 1.00D+00 BMatC= 8.43D-10 BMatP= 4.45D-09
 IDIUse=1 WtCom= 1.00D+00 WtEn= 0.00D+00
 Coeff-Com: -0.157D-04 0.500D-06-0.316D-03 0.158D-03 0.864D-02 0.764D-02
 Coeff-Com: -0.309D+00 0.129D+01
 Coeff:     -0.157D-04 0.500D-06-0.316D-03 0.158D-03 0.864D-02 0.764D-02
 Coeff:     -0.309D+00 0.129D+01
 Gap=     0.025 Goal=   None    Shift=    0.000
 RMSDP=1.38D-06 MaxDP=1.23D-05 DE=-8.36D-09 OVMax= 3.79D-05

 Cycle   9  Pass 1  IDiag  1:
 Density matrix breaks symmetry, PCut= 1.00D-04
 Density has only Abelian symmetry.
 E= -468.731215904560     Delta-E=       -0.000000001060 Rises=F Damp=F
 DIIS: error= 3.20D-07 at cycle   9 NSaved=   9.
 NSaved= 9 IEnMin= 9 EnMin= -468.731215904560     IErMin= 9 ErrMin= 3.20D-07
 ErrMax= 3.20D-07  0.00D+00 EMaxC= 1.00D+00 BMatC= 9.03D-12 BMatP= 8.43D-10
 IDIUse=1 WtCom= 1.00D+00 WtEn= 0.00D+00
 Coeff-Com:  0.246D-05-0.537D-06 0.127D-04 0.157D-04-0.131D-02-0.143D-02
 Coeff-Com:  0.182D-01-0.183D+00 0.117D+01
 Coeff:      0.246D-05-0.537D-06 0.127D-04 0.157D-04-0.131D-02-0.143D-02
 Coeff:      0.182D-01-0.183D+00 0.117D+01
 Gap=     0.025 Goal=   None    Shift=    0.000
 RMSDP=5.82D-07 MaxDP=4.70D-06 DE=-1.06D-09 OVMax= 1.66D-05

 Cycle  10  Pass 1  IDiag  1:
 Density matrix breaks symmetry, PCut= 1.00D-04
 Density has only Abelian symmetry.
 E= -468.731215904647     Delta-E=       -0.000000000086 Rises=F Damp=F
 DIIS: error= 1.56D-07 at cycle  10 NSaved=  10.
 NSaved=10 IEnMin=10 EnMin= -468.731215904647     IErMin=10 ErrMin= 1.56D-07
 ErrMax= 1.56D-07  0.00D+00 EMaxC= 1.00D+00 BMatC= 1.94D-12 BMatP= 9.03D-12
 IDIUse=1 WtCom= 1.00D+00 WtEn= 0.00D+00
 Coeff-Com: -0.133D-05 0.120D-06 0.548D-04-0.293D-04 0.209D-03 0.123D-02
 Coeff-Com:  0.766D-02 0.324D-02-0.790D+00 0.178D+01
 Coeff:     -0.133D-05 0.120D-06 0.548D-04-0.293D-04 0.209D-03 0.123D-02
 Coeff:      0.766D-02 0.324D-02-0.790D+00 0.178D+01
 Gap=     0.025 Goal=   None    Shift=    0.000
 RMSDP=4.64D-07 MaxDP=3.82D-06 DE=-8.64D-11 OVMax= 1.30D-05

 Cycle  11  Pass 1  IDiag  1:
 Density matrix breaks symmetry, PCut= 1.00D-04
 Density has only Abelian symmetry.
 E= -468.731215904668     Delta-E=       -0.000000000021 Rises=F Damp=F
 DIIS: error= 3.70D-08 at cycle  11 NSaved=  11.
 NSaved=11 IEnMin=11 EnMin= -468.731215904668     IErMin=11 ErrMin= 3.70D-08
 ErrMax= 3.70D-08  0.00D+00 EMaxC= 1.00D+00 BMatC= 9.99D-14 BMatP= 1.94D-12
 IDIUse=1 WtCom= 1.00D+00 WtEn= 0.00D+00
 Coeff-Com:  0.286D-06 0.566D-08-0.200D-04-0.441D-06-0.101D-04 0.327D-03
 Coeff-Com: -0.201D-02-0.844D-02 0.140D+00-0.360D+00 0.123D+01
 Coeff:      0.286D-06 0.566D-08-0.200D-04-0.441D-06-0.101D-04 0.327D-03
 Coeff:     -0.201D-02-0.844D-02 0.140D+00-0.360D+00 0.123D+01
 Gap=     0.025 Goal=   None    Shift=    0.000
 RMSDP=5.71D-08 MaxDP=4.93D-07 DE=-2.08D-11 OVMax= 1.50D-06

 Cycle  12  Pass 1  IDiag  1:
 Density matrix breaks symmetry, PCut= 1.00D-04
 Density has only Abelian symmetry.
 E= -468.731215904670     Delta-E=       -0.000000000002 Rises=F Damp=F
 DIIS: error= 3.75D-09 at cycle  12 NSaved=  12.
 NSaved=12 IEnMin=12 EnMin= -468.731215904670     IErMin=12 ErrMin= 3.75D-09
 ErrMax= 3.75D-09  0.00D+00 EMaxC= 1.00D+00 BMatC= 9.14D-16 BMatP= 9.99D-14
 IDIUse=1 WtCom= 1.00D+00 WtEn= 0.00D+00
 Coeff-Com: -0.362D-07-0.328D-08 0.359D-05 0.932D-06 0.191D-05-0.125D-03
 Coeff-Com:  0.260D-03 0.299D-02-0.244D-01 0.584D-01-0.325D+00 0.129D+01
 Coeff:     -0.362D-07-0.328D-08 0.359D-05 0.932D-06 0.191D-05-0.125D-03
 Coeff:      0.260D-03 0.299D-02-0.244D-01 0.584D-01-0.325D+00 0.129D+01
 Gap=     0.025 Goal=   None    Shift=    0.000
 RMSDP=9.46D-09 MaxDP=8.30D-08 DE=-1.93D-12 OVMax= 2.17D-07

 Density matrix breaks symmetry, PCut= 1.00D-04
 Density has only Abelian symmetry.
 SCF Done:  E(RPBE1PBE) =  -468.731215905     A.U. after   12 cycles
            NFock= 12  Conv=0.95D-08     -V/T= 2.1591
 KE= 4.044064911250D+02 PE=-1.690261951907D+03 EE= 5.488475999306D+02
 Leave Link  502 at Sat Oct 18 14:23:08 2025, MaxMem=  4294967296 cpu:               2.3 elap:               0.3
 (Enter /opt/modules/software/gaussian/G16-C01/l508.exe)
 QCSCF skips out because SCF is already converged.
 Leave Link  508 at Sat Oct 18 14:23:08 2025, MaxMem=  4294967296 cpu:               0.0 elap:               0.0
 (Enter /opt/modules/software/gaussian/G16-C01/l108.exe)
 Variable Step   Value    
 -------- ---- -----------
     1       3    3.118048
 Leave Link  108 at Sat Oct 18 14:23:08 2025, MaxMem=  4294967296 cpu:               0.0 elap:               0.0
 (Enter /opt/modules/software/gaussian/G16-C01/l202.exe)
 ---------------------------------------------------------------------------------------------------
                            Z-MATRIX (ANGSTROMS AND DEGREES)
   CD    Cent   Atom    N1       Length/X        N2       Alpha/Y        N3        Beta/Z          J
 ---------------------------------------------------------------------------------------------------
      1      1  Ni
      2      2  O        1   1.650000(     1)
      3      3  O        1   1.650000(     2)      2  109.471(     5)
      4      4  O        1   1.650000(     3)      3  109.471(     6)      2 -120.000(     8)      0
      5      5  O        1   1.650000(     4)      4  109.471(     7)      3  120.000(     9)      0
 ---------------------------------------------------------------------------------------------------
                         Z-Matrix orientation:                         
 ---------------------------------------------------------------------
 Center     Atomic      Atomic             Coordinates (Angstroms)
 Number     Number       Type             X           Y           Z
 ---------------------------------------------------------------------
      1         28           0        0.000000    0.000000    0.000000
      2          8           0        0.000000    0.000000    1.650000
      3          8           0        1.555635    0.000000   -0.550000
      4          8           0       -0.777817   -1.347219   -0.550000
      5          8           0       -0.777817    1.347219   -0.550000
 ---------------------------------------------------------------------
                    Distance matrix (angstroms):
                    1          2          3          4          5
     1  Ni   0.000000
     2  O    1.650000   0.000000
     3  O    1.650000   2.694439   0.000000
     4  O    1.650000   2.694439   2.694439   0.000000
     5  O    1.650000   2.694439   2.694439   2.694439   0.000000
 Stoichiometry    NiO4(4-)
 Framework group  TD[O(Ni),4C3(O)]
 Deg. of freedom     1
 Full point group                 TD      NOp  24
 RotChk:  IX=0 Diff= 7.68D-16
 Largest Abelian subgroup         D2      NOp   4
 Largest concise Abelian subgroup D2      NOp   4
                         Standard orientation:                         
 ---------------------------------------------------------------------
 Center     Atomic      Atomic             Coordinates (Angstroms)
 Number     Number       Type             X           Y           Z
 ---------------------------------------------------------------------
      1         28           0        0.000000    0.000000    0.000000
      2          8           0        0.952628    0.952628    0.952628
      3          8           0       -0.952628   -0.952628    0.952628
      4          8           0       -0.952628    0.952628   -0.952628
      5          8           0        0.952628   -0.952628   -0.952628
 ---------------------------------------------------------------------
 Rotational constants (GHZ):           4.3520979           4.3520979           4.3520979
 Leave Link  202 at Sat Oct 18 14:23:08 2025, MaxMem=  4294967296 cpu:               0.0 elap:               0.0
 (Enter /opt/modules/software/gaussian/G16-C01/l301.exe)
 Basis read from rwf:  (5D, 7F)
 Pseudo-potential data read from rwf file.
 There are    18 symmetry adapted cartesian basis functions of A   symmetry.
 There are    14 symmetry adapted cartesian basis functions of B1  symmetry.
 There are    14 symmetry adapted cartesian basis functions of B2  symmetry.
 There are    14 symmetry adapted cartesian basis functions of B3  symmetry.
 There are    16 symmetry adapted basis functions of A   symmetry.
 There are    14 symmetry adapted basis functions of B1  symmetry.
 There are    14 symmetry adapted basis functions of B2  symmetry.
 There are    14 symmetry adapted basis functions of B3  symmetry.
    58 basis functions,   152 primitive gaussians,    60 cartesian basis functions
    27 alpha electrons       27 beta electrons
       nuclear repulsion energy       260.1470496456 Hartrees.
 IExCor= 1009 DFT=T Ex+Corr=PBE1PBE ExCW=0 ScaHFX=  0.250000
 ScaDFX=  0.750000  0.750000  1.000000  1.000000 ScalE2=  1.000000  1.000000
 IRadAn=      5 IRanWt=     -1 IRanGd=            0 ICorTp=0 IEmpDi=  4
 NAtoms=    5 NActive=    5 NUniq=    2 SFac= 4.00D+00 NAtFMM=   60 NAOKFM=F Big=F
 Integral buffers will be    131072 words long.
 Raffenetti 2 integral format.
 Two-electron integral symmetry is turned on.
 No density basis found on file    724.
 Leave Link  301 at Sat Oct 18 14:23:08 2025, MaxMem=  4294967296 cpu:               0.2 elap:               0.0
 (Enter /opt/modules/software/gaussian/G16-C01/l302.exe)
 NPDir=0 NMtPBC=     1 NCelOv=     1 NCel=       1 NClECP=     1 NCelD=      1
         NCelK=      1 NCelE2=     1 NClLst=     1 CellRange=     0.0.
 One-electron integrals computed using PRISM.
[...]
 Inversion failed.  Reducing to  8 matrices.
 Large coefficients: NSaved=  8 BigCof=   52.49 CofMax=   10.00 Det=-8.46D-19
 Inversion failed.  Reducing to  7 matrices.
 Large coefficients: NSaved=  7 BigCof=   38.00 CofMax=   10.00 Det=-1.39D-18
 Inversion failed.  Reducing to  6 matrices.
 Large coefficients: NSaved=  6 BigCof=   36.21 CofMax=   10.00 Det=-1.46D-18
 Inversion failed.  Reducing to  5 matrices.
 Large coefficients: NSaved=  5 BigCof=   35.01 CofMax=   10.00 Det=-1.51D-18
 Inversion failed.  Reducing to  4 matrices.
 Large coefficients: NSaved=  4 BigCof=   33.86 CofMax=   10.00 Det=-1.62D-18
 Inversion failed.  Reducing to  3 matrices.
 Large coefficients: NSaved=  3 BigCof=   20.30 CofMax=   10.00 Det=-2.81D-18
 Inversion failed.  Reducing to  2 matrices.
 Coeff-Com:  0.734D+00 0.266D+00
 Coeff:      0.734D+00 0.266D+00
 Gap=     0.008 Goal=   None    Shift=    0.000
 RMSDP=2.21D-08 MaxDP=2.37D-07 DE=-8.53D-13 OVMax= 7.00D-07

 Cycle  12  Pass 1  IDiag  1:
 Density matrix breaks symmetry, PCut= 1.00D-04
 Density has only Abelian symmetry.
 E= -468.772248523309     Delta-E=       -0.000000000000 Rises=F Damp=F
 DIIS: error= 2.22D-08 at cycle  12 NSaved=   3.
 NSaved= 3 IEnMin= 3 EnMin= -468.772248523309     IErMin= 3 ErrMin= 2.22D-08
 ErrMax= 2.22D-08  0.00D+00 EMaxC= 1.00D-01 BMatC= 7.12D-15 BMatP= 7.35D-15
 IDIUse=1 WtCom= 1.00D+00 WtEn= 0.00D+00
 Large coefficients: NSaved=  3 BigCof=   50.75 CofMax=   10.00 Det=-8.41D-19
 Inversion failed.  Reducing to  2 matrices.
 Coeff-Com:  0.251D+00 0.749D+00
 Coeff:      0.251D+00 0.749D+00
 Gap=     0.008 Goal=   None    Shift=    0.000
 RMSDP=2.70D-08 MaxDP=2.96D-07 DE=-2.84D-13 OVMax= 8.61D-07

 Cycle  13  Pass 1  IDiag  1:
 Density matrix breaks symmetry, PCut= 1.00D-04
 Density has only Abelian symmetry.
 E= -468.772248523309     Delta-E=        0.000000000000 Rises=F Damp=F
 DIIS: error= 2.21D-08 at cycle  13 NSaved=   3.
 NSaved= 3 IEnMin= 2 EnMin= -468.772248523309     IErMin= 3 ErrMin= 2.21D-08
 ErrMax= 2.21D-08  0.00D+00 EMaxC= 1.00D-01 BMatC= 6.24D-15 BMatP= 7.12D-15
 IDIUse=1 WtCom= 1.00D+00 WtEn= 0.00D+00
 Large coefficients: NSaved=  3 BigCof=  156.03 CofMax=   10.00 Det=-2.33D-19
 Inversion failed.  Reducing to  2 matrices.
 Coeff-Com: -0.889D+00 0.189D+01
 Coeff:     -0.889D+00 0.189D+01
 Gap=     0.008 Goal=   None    Shift=    0.000
 RMSDP=4.54D-08 MaxDP=5.00D-07 DE= 0.00D+00 OVMax= 1.45D-06

 Cycle  14  Pass 1  IDiag  1:
 Density matrix breaks symmetry, PCut= 1.00D-04
 Density has only Abelian symmetry.
 E= -468.772248523308     Delta-E=        0.000000000000 Rises=F Damp=F
 DIIS: error= 2.66D-08 at cycle  14 NSaved=   3.
 NSaved= 3 IEnMin= 1 EnMin= -468.772248523309     IErMin= 2 ErrMin= 2.21D-08
 ErrMax= 2.66D-08  0.00D+00 EMaxC= 1.00D-01 BMatC= 1.59D-14 BMatP= 6.24D-15
 IDIUse=1 WtCom= 1.00D+00 WtEn= 0.00D+00
 Large coefficients: NSaved=  3 BigCof=  136.04 CofMax=   10.00 Det=-3.00D-19
 Inversion failed.  Reducing to  2 matrices.
 Coeff-Com:  0.116D+01-0.158D+00
 Coeff:      0.116D+01-0.158D+00
 Gap=     0.008 Goal=   None    Shift=    0.000
 RMSDP=3.12D-08 MaxDP=3.45D-07 DE= 1.71D-13 OVMax= 9.90D-07

 Cycle  15  Pass 1  IDiag  1:
 Density matrix breaks symmetry, PCut= 1.00D-04
 Density has only Abelian symmetry.
 E= -468.772248523309     Delta-E=       -0.000000000001 Rises=F Damp=F
 DIIS: error= 2.21D-08 at cycle  15 NSaved=   3.
 NSaved= 3 IEnMin= 3 EnMin= -468.772248523309     IErMin= 3 ErrMin= 2.21D-08
 ErrMax= 2.21D-08  0.00D+00 EMaxC= 1.00D-01 BMatC= 7.34D-15 BMatP= 6.24D-15
 IDIUse=1 WtCom= 1.00D+00 WtEn= 0.00D+00
 Large coefficients: NSaved=  3 BigCof=  124.29 CofMax=   10.00 Det=-2.31D-19
 Inversion failed.  Reducing to  2 matrices.
 Coeff-Com:  0.269D+00 0.731D+00
 Coeff:      0.269D+00 0.731D+00
 Gap=     0.008 Goal=   None    Shift=    0.000
 RMSDP=2.97D-08 MaxDP=3.26D-07 DE=-5.68D-13 OVMax= 9.46D-07

 Cycle  16  Pass 1  IDiag  1:
 Density matrix breaks symmetry, PCut= 1.00D-04
 Density has only Abelian symmetry.
 E= -468.772248523309     Delta-E=       -0.000000000000 Rises=F Damp=F
 DIIS: error= 2.19D-08 at cycle  16 NSaved=   3.
 NSaved= 3 IEnMin= 3 EnMin= -468.772248523309     IErMin= 3 ErrMin= 2.19D-08
 ErrMax= 2.19D-08  0.00D+00 EMaxC= 1.00D-01 BMatC= 6.17D-15 BMatP= 7.34D-15
 IDIUse=1 WtCom= 1.00D+00 WtEn= 0.00D+00
 Large coefficients: NSaved=  3 BigCof=   94.04 CofMax=   10.00 Det=-4.14D-19
 Inversion failed.  Reducing to  2 matrices.
 Coeff-Com: -0.782D+00 0.178D+01
 Coeff:     -0.782D+00 0.178D+01
 Gap=     0.008 Goal=   None    Shift=    0.000
 RMSDP=4.44D-08 MaxDP=4.84D-07 DE=-4.55D-13 OVMax= 1.41D-06

 Cycle  17  Pass 1  IDiag  1:
 Density matrix breaks symmetry, PCut= 1.00D-04
 Density has only Abelian symmetry.
 E= -468.772248523310     Delta-E=       -0.000000000001 Rises=F Damp=F
 DIIS: error= 2.48D-08 at cycle  17 NSaved=   3.
 NSaved= 3 IEnMin= 3 EnMin= -468.772248523310     IErMin= 2 ErrMin= 2.19D-08
 ErrMax= 2.48D-08  0.00D+00 EMaxC= 1.00D-01 BMatC= 1.38D-14 BMatP= 6.17D-15
 IDIUse=1 WtCom= 1.00D+00 WtEn= 0.00D+00
 Large coefficients: NSaved=  3 BigCof=  118.82 CofMax=   10.00 Det=-3.97D-19
 Inversion failed.  Reducing to  2 matrices.
 Coeff-Com:  0.120D+01-0.196D+00
 Coeff:      0.120D+01-0.196D+00
 Gap=     0.008 Goal=   None    Shift=    0.000
 RMSDP=3.19D-08 MaxDP=3.45D-07 DE=-6.25D-13 OVMax= 1.01D-06

 Cycle  18  Pass 1  IDiag  1:
 Density matrix breaks symmetry, PCut= 1.00D-04
 Density has only Abelian symmetry.
 E= -468.772248523310     Delta-E=       -0.000000000000 Rises=F Damp=F
 DIIS: error= 2.19D-08 at cycle  18 NSaved=   3.
 NSaved= 3 IEnMin= 3 EnMin= -468.772248523310     IErMin= 3 ErrMin= 2.19D-08
 ErrMax= 2.19D-08  0.00D+00 EMaxC= 1.00D-01 BMatC= 7.77D-15 BMatP= 6.17D-15
 IDIUse=1 WtCom= 1.00D+00 WtEn= 0.00D+00
 Large coefficients: NSaved=  3 BigCof=   40.51 CofMax=   10.00 Det=-7.15D-19
 Inversion failed.  Reducing to  2 matrices.
 Coeff-Com:  0.328D+00 0.672D+00
 Coeff:      0.328D+00 0.672D+00
 Gap=     0.008 Goal=   None    Shift=    0.000
 RMSDP=3.16D-08 MaxDP=3.45D-07 DE=-2.27D-13 OVMax= 1.01D-06

 Cycle  19  Pass 1  IDiag  1:
 Density matrix breaks symmetry, PCut= 1.00D-04
 Density has only Abelian symmetry.
 E= -468.772248523310     Delta-E=        0.000000000000 Rises=F Damp=F
 DIIS: error= 2.18D-08 at cycle  19 NSaved=   3.
 NSaved= 3 IEnMin= 2 EnMin= -468.772248523310     IErMin= 3 ErrMin= 2.18D-08
 ErrMax= 2.18D-08  0.00D+00 EMaxC= 1.00D-01 BMatC= 6.01D-15 BMatP= 7.77D-15
 IDIUse=1 WtCom= 1.00D+00 WtEn= 0.00D+00
 Large coefficients: NSaved=  3 BigCof=   20.75 CofMax=   10.00 Det=-2.22D-18
 Inversion failed.  Reducing to  2 matrices.
 Coeff-Com: -0.459D+00 0.146D+01
 Coeff:     -0.459D+00 0.146D+01
 Gap=     0.008 Goal=   None    Shift=    0.000
 RMSDP=3.55D-08 MaxDP=3.91D-07 DE= 5.68D-14 OVMax= 1.13D-06

 Cycle  20  Pass 1  IDiag  1:
 Density matrix breaks symmetry, PCut= 1.00D-04
 Density has only Abelian symmetry.
 E= -468.772248523310     Delta-E=        0.000000000000 Rises=F Damp=F
 DIIS: error= 2.16D-08 at cycle  20 NSaved=   3.
 NSaved= 3 IEnMin= 1 EnMin= -468.772248523310     IErMin= 3 ErrMin= 2.16D-08
 ErrMax= 2.16D-08  0.00D+00 EMaxC= 1.00D-01 BMatC= 1.14D-14 BMatP= 6.01D-15
 IDIUse=1 WtCom= 1.00D+00 WtEn= 0.00D+00
 Large coefficients: NSaved=  3 BigCof=  104.15 CofMax=   10.00 Det=-5.15D-19
 Inversion failed.  Reducing to  2 matrices.
 Coeff-Com:  0.119D+01-0.195D+00
 Coeff:      0.119D+01-0.195D+00
 Gap=     0.008 Goal=   None    Shift=    0.000
 RMSDP=2.14D-08 MaxDP=2.37D-07 DE= 5.68D-14 OVMax= 6.80D-07

 >>>>>>>>>> Convergence criterion not met.
 SCF Done:  E(RPBE1PBE) =  -468.772248523     A.U. after   21 cycles
            NFock= 20  Conv=0.21D-07     -V/T= 2.1568
 KE= 4.052380268019D+02 PE=-1.230525243036D+03 EE= 3.135907045192D+02
 Leave Link  502 at Sat Oct 18 14:24:57 2025, MaxMem=  4294967296 cpu:               2.2 elap:               0.3
 (Enter /opt/modules/software/gaussian/G16-C01/l508.exe)
 Keep R1 ints in memory in symmetry-blocked form, NReq=8551916.
 FoFCou: FMM=F IPFlag=           0 FMFlag=           0 FMFlg1=           0
         NFxFlg=           0 DoJE=F BraDBF=F KetDBF=F FulRan=T
         wScrn=  0.000000 ICntrl=       600 IOpCl=  0 I1Cent=           0 NGrid=           0
         NMat0=    1 NMatS0=   1711 NMatT0=    0 NMatD0=    1 NMtDS0=    0 NMtDT0=    0
 Petite list used in FoFCou.
 Tight linear equation convergence will be used.
 RPBE1PBE wavefunction.
 Quadratic Convergence SCF Method.
 Line search only if initial step raises energy.
 Density matrix breaks symmetry, PCut= 1.00D-04
 Density has only Abelian symmetry.
 Iteration   1 EE= -468.772248523311                                    Grad=1.167D-07 Max rot=    0.0000 deg.
 Rotation gradient small -- convergence achieved.
 Orbital symmetries in SymMO:
    1=2    2=3    3=4    4=1    5=1    6=4    7=2    8=3    9=2   10=3
   11=4   12=1   13=1   14=2   15=4   16=1   17=2   18=3   19=4   20=1
   21=4   22=3   23=2   24=1   25=1   26=3   27=2   28=4   29=1   30=3
   31=2   32=4   33=3   34=2   35=4   36=3   37=1   38=1   39=2   40=3
   41=4   42=3   43=1   44=4   45=2   46=1   47=4   48=2   49=3   50=1
   51=3   52=2   53=4   54=1   55=2   56=1   57=3   58=4
 SCF Done:  E(RPBE1PBE) =  -468.772248523     a.u. after    1 cycles
            Convg  =    0.1167D-06                     1 Fock formations.
              S**2 =  0.0000                  -V/T =  2.1568
 Density matrix breaks symmetry, PCut= 1.00D-04
 Density has only Abelian symmetry.
 Leave Link  508 at Sat Oct 18 14:24:57 2025, MaxMem=  4294967296 cpu:               0.9 elap:               0.1
 (Enter /opt/modules/software/gaussian/G16-C01/l108.exe)
 Scan completed.
 
 Summary of the potential surface scan:
   N       r          SCF    
 ----  ---------  -----------
    1     1.5000   -468.62330
    2     1.5500   -468.68912
    3     1.6000   -468.73122
    4     1.6500   -468.75557
    5     1.7000   -468.76684
    6     1.7500   -468.76858
    7     1.8000   -468.76350
    8     1.8500   -468.75365
    9     1.9000   -468.74061
   10     1.9500   -468.72557
   11     2.0000   -468.70943
   12     2.0500   -468.69280
   13     2.1000   -468.67614
   14     2.1500   -468.65980
   15     2.2000   -468.64401
   16     2.2500   -468.62889
   17     2.3000   -468.61456
   18     2.3500   -468.60106
   19     2.4000   -468.58844
   20     2.4500   -468.57669
   21     2.5000   -468.56581
   22     2.5500   -468.55581
   23     2.6000   -468.54665
   24     2.6500   -468.53831
   25     2.7000   -468.53075
   26     2.7500   -468.52395
   27     2.8000   -468.51788
   28     2.8500   -468.51249
   29     2.9000   -468.50774
   30     2.9500   -468.50359
   31     3.0000   -468.50001
   32     3.0500   -468.49695
   33     3.1000   -468.49438
   34     3.1500   -468.49225
   35     3.2000   -468.49053
   36     3.2500   -468.48918
   37     3.3000   -468.48818
   38     3.3500   -468.48750
   39     3.4000   -468.48710
   40     3.4500   -468.48697
   41     3.5000   -468.48707
   42     3.5500   -468.48740
   43     3.6000   -468.48794
   44     3.6500   -468.48868
   45     3.7000   -468.48959
   46     3.7500   -468.49067
   47     3.8000   -468.49190
   48     3.8500   -468.49328
   49     3.9000   -468.49479
   50     3.9500   -468.49643
   51     4.0000   -468.49820
   52     4.0500   -468.50007
   53     4.1000   -468.50205
   54     4.1500   -468.50412
   55     4.2000   -468.50629
   56     4.2500   -468.50853
   57     4.3000   -468.51085
   58     4.3500   -468.51325
   59     4.4000   -468.51570
   60     4.4500   -468.51821
   61     4.5000   -468.52077
   62     4.5500   -468.52338
   63     4.6000   -468.52604
   64     4.6500   -468.52872
   65     4.7000   -468.53144
   66     4.7500   -468.53418
   67     4.8000   -468.53694
   68     4.8500   -468.53972
   69     4.9000   -468.54251
   70     4.9500   -468.54531
   71     5.0000   -468.54812
   72     5.0500   -468.55094
   73     5.1000   -468.55376
   74     5.1500   -468.55657
   75     5.2000   -468.55938
   76     5.2500   -468.56218
   77     5.3000   -468.56498
   78     5.3500   -468.56776
   79     5.4000   -468.57054
   80     5.4500   -468.57330
   81     5.5000   -468.57605
   82     5.5500   -468.57879
   83     5.6000   -468.58151
   84     5.6500   -468.58421
   85     5.7000   -468.58690
   86     5.7500   -468.58956
   87     5.8000   -468.59221
   88     5.8500   -468.59484
   89     5.9000   -468.59746
   90     5.9500   -468.60005
   91     6.0000   -468.60263
   92     6.0500   -468.60518
   93     6.1000   -468.60772
   94     6.1500   -468.61024
   95     6.2000   -468.61274
   96     6.2500   -468.61522
   97     6.3000   -468.61767
   98     6.3500   -468.62011
   99     6.4000   -468.62253
  100     6.4500   -468.62493
  101     6.5000   -468.62732
  102     6.5500   -468.62968
  103     6.6000   -468.63203
  104     6.6500   -468.63435
  105     6.7000   -468.63666
  106     6.7500   -468.63895
  107     6.8000   -468.64122
  108     6.8500   -468.64347
  109     6.9000   -468.64570
  110     6.9500   -468.64791
  111     7.0000   -468.65011
  112     7.0500   -468.65228
  113     7.1000   -468.65444
  114     7.1500   -468.65658
  115     7.2000   -468.65870
  116     7.2500   -468.66080
  117     7.3000   -468.66289
  118     7.3500   -468.66495
  119     7.4000   -468.66700
  120     7.4500   -468.66903
  121     7.5000   -468.67104
  122     7.5500   -468.67304
  123     7.6000   -468.67501
  124     7.6500   -468.67697
  125     7.7000   -468.67891
  126     7.7500   -468.68083
  127     7.8000   -468.68273
  128     7.8500   -468.68461
  129     7.9000   -468.68648
  130     7.9500   -468.68833
  131     8.0000   -468.69016
  132     8.0500   -468.69197
  133     8.1000   -468.69377
  134     8.1500   -468.69555
  135     8.2000   -468.69731
  136     8.2500   -468.69905
  137     8.3000   -468.70078
  138     8.3500   -468.70249
  139     8.4000   -468.70419
  140     8.4500   -468.70586
  141     8.5000   -468.70752
  142     8.5500   -468.70916
  143     8.6000   -468.71079
  144     8.6500   -468.71240
  145     8.7000   -468.71399
  146     8.7500   -468.73769
  147     8.8000   -468.73925
  148     8.8500   -468.74080
  149     8.9000   -468.74232
  150     8.9500   -468.74384
  151     9.0000   -468.74533
  152     9.0500   -468.74681
  153     9.1000   -468.74828
  154     9.1500   -468.74973
  155     9.2000   -468.75117
  156     9.2500   -468.75258
  157     9.3000   -468.75400
  158     9.3500   -468.75539
  159     9.4000   -468.75676
  160     9.4500   -468.75812
  161     9.5000   -468.75948
  162     9.5500   -468.76082
  163     9.6000   -468.76214
  164     9.6500   -468.76344
  165     9.7000   -468.76474
  166     9.7500   -468.76602
  167     9.8000   -468.76729
  168     9.8500   -468.76855
  169     9.9000   -468.76980
  170     9.9500   -468.77103
  171    10.0000   -468.77225
 ----  ---------  -----------
  
 Leave Link  108 at Sat Oct 18 14:24:57 2025, MaxMem=  4294967296 cpu:               0.0 elap:               0.0
 (Enter /opt/modules/software/gaussian/G16-C01/l9999.exe)
 Unable to Open any file for archive entry.
 1\1\GINC-PRCC02008\Scan\RPBE1PBE\GenECP\Ni1O4(4-)\FUTERA\18-Oct-2025\1
 \\#p PBE1PBE/GenECP SCF(Tight,XQC,MaxCycle=500,MaxConventional=20) Sca
 n\\Nickel ferrate (PBE0/LANL2DZ)\\-4,1\Ni\O,1,r\O,1,r,2,109.47122063\O
 ,1,r,3,109.47122063,2,-120.,0\O,1,r,4,109.47122063,3,120.,0\\r=1.5,s,1
 70,0.05\\Version=ES64L-G16RevC.01\HF=-468.623303,-468.689123,-468.7312
 159,-468.7555742,-468.7668436,-468.7685822,-468.7634981,-468.7536505,-
 468.7406089,-468.7255722,-468.7094274,-468.6928,-468.6761447,-468.6598
 046,-468.6440079,-468.628892,-468.6145554,-468.6010645,-468.5884422,-4
 68.5766896,-468.5658114,-468.5558071,-468.5466524,-468.5383094,-468.53
 07497,-468.5239517,-468.5178818,-468.5124933,-468.5077406,-468.5035889
 ,-468.5000061,-468.496952,-468.4943811,-468.4922507,-468.4905263,-468.
 4891793,-468.4881807,-468.4874989,-468.487103,-468.4869674,-468.487072
 8,-468.4874037,-468.4879444,-468.4886784,-468.4895901,-468.4906669,-46
 8.4918984,-468.4932755,-468.4947899,-468.4964328,-468.4981954,-468.500
 0693,-468.502047,-468.5041214,-468.5062854,-468.5085319,-468.5108543,-
 468.5132458,-468.5157002,-468.5182117,-468.5207749,-468.5233847,-468.5
 260353,-468.528721,-468.5314363,-468.5341764,-468.5369373,-468.5397156
 ,-468.5425081,-468.5453117,-468.5481233,-468.5509392,-468.5537559,-468
 .5565704,-468.5593799,-468.5621826,-468.5649773,-468.5677628,-468.5705
 38,-468.5733014,-468.5760516,-468.5787873,-468.5815073,-468.5842108,-4
 68.5868969,-468.5895649,-468.5922143,-468.5948449,-468.597457,-468.600
 0507,-468.602626,-468.6051828,-468.6077205,-468.6102386,-468.6127368,-
 468.6152151,-468.6176737,-468.6201129,-468.622533,-468.6249342,-468.62
 73167,-468.6296804,-468.6320253,-468.6343516,-468.636659,-468.6389476,
 -468.6412172,-468.6434679,-468.6456997,-468.6479127,-468.6501071,-468.
 6522831,-468.6544406,-468.6565799,-468.6587011,-468.6608039,-468.66288
 85,-468.6649549,-468.6670029,-468.6690326,-468.6710441,-468.6730372,-4
 68.6750117,-468.676968,-468.678906,-468.6808259,-468.6827278,-468.6846
 118,-468.686478,-468.688327,-468.690159,-468.6919723,-468.6937681,-468
 .6955467,-468.6973083,-468.6990522,-468.7007801,-468.7024913,-468.7041
 855,-468.7058608,-468.7075204,-468.7091627,-468.7107877,-468.7123971,-
 468.7139903,-468.7376914,-468.7392528,-468.7407954,-468.7423225,-468.7
 438382,-468.7453329,-468.7468124,-468.7482824,-468.7497309,-468.751165
 1,-468.752584,-468.753997,-468.7553852,-468.7567624,-468.7581228,-468.
 7594813,-468.7608162,-468.7621363,-468.7634443,-468.7647373,-468.76602
 28,-468.7672916,-468.7685543,-468.7697994,-468.7710308,-468.7722485\RM
 SD=6.898e-09,1.307e-09,9.458e-09,7.191e-09,3.929e-09,6.681e-09,2.677e-
 09,3.238e-09,2.293e-10,7.085e-09,8.925e-10,5.922e-09,2.464e-09,6.012e-
 09,5.377e-10,6.177e-10,5.447e-10,4.346e-10,5.013e-10,8.078e-09,4.854e-
 09,2.528e-09,1.679e-09,2.169e-09,3.149e-09,6.235e-10,5.088e-10,5.274e-
 09,4.421e-09,3.075e-09,2.193e-09,9.554e-10,1.733e-09,4.397e-09,4.985e-
 09,5.603e-09,6.187e-09,7.178e-09,4.006e-09,4.833e-09,3.344e-09,1.856e-
 09,9.081e-09,1.427e-09,2.077e-09,4.419e-09,8.865e-09,5.225e-09,3.712e-
 09,2.175e-09,5.553e-09,8.393e-09,9.938e-09,4.013e-10,4.328e-10,4.905e-
 09,3.641e-10,4.752e-09,9.774e-09,4.671e-09,5.749e-09,1.139e-09,9.830e-
 09,1.053e-09,1.500e-09,1.948e-09,8.191e-09,6.935e-09,5.283e-09,8.828e-
 09,6.219e-09,6.004e-09,5.062e-09,6.588e-09,8.123e-10,8.344e-09,4.487e-
 09,1.777e-09,2.720e-09,6.103e-09,9.521e-09,5.925e-11,3.948e-10,8.760e-
 10,4.014e-09,2.377e-09,4.355e-09,1.579e-10,5.055e-10,6.271e-10,7.683e-
 10,6.034e-10,8.144e-10,1.229e-09,1.747e-09,2.827e-09,1.487e-09,1.080e-
 09,8.802e-10,3.408e-10,7.396e-09,2.185e-09,8.539e-09,5.021e-12,7.413e-
 09,1.615e-09,4.976e-09,6.219e-09,6.653e-09,6.316e-09,4.694e-09,5.906e-
 09,1.383e-09,1.075e-09,5.803e-11,6.194e-09,6.550e-09,2.873e-10,4.038e-
 09,4.625e-09,8.869e-09,3.424e-09,6.029e-12,4.374e-13,7.444e-09,2.874e-
 10,7.966e-09,1.977e-09,2.123e-10,1.791e-14,1.485e-09,1.663e-10,8.832e-
 09,8.379e-10,9.127e-09,6.775e-09,1.421e-09,4.070e-09,4.188e-09,2.945e-
 09,8.280e-10,1.061e-10,9.157e-10,1.073e-09,6.195e-10,2.708e-12,1.527e-
 09,9.622e-10,2.780e-09,2.364e-09,7.645e-09,1.283e-09,1.479e-09,1.529e-
 09,1.580e-09,1.498e-09,8.536e-09,5.827e-10,5.583e-10,3.018e-10,8.138e-
 11,4.120e-10,1.536e-10,6.024e-10,4.672e-10,1.823e-09,1.785e-09,8.908e-
 09,3.601e-09,5.573e-09,2.853e-09\PG=TD [O(Ni1),4C3(O1)]\\@
 The archive entry for this job was punched.


 Democracy is the recurrent suspicion that more than half of the people
 are right more than half of the time.
 -- E. B. White
 Job cpu time:       0 days  0 hours 13 minutes 40.8 seconds.
 Elapsed time:       0 days  0 hours  1 minutes 44.7 seconds.
 File lengths (MBytes):  RWF=      6 Int=      0 D2E=      0 Chk=      3 Scr=      1
 Normal termination of Gaussian 16 at Sat Oct 18 14:24:57 2025.
