 Entering Gaussian System, Link 0=g16
 Input=nio4.com
 Output=nio4.log
 Initial command:
 /opt/modules/software/gaussian/G16-C01/l1.exe "/home/futera/Documents/2025-nife2o4-params/bond-parameters/pbe0-lanl2dz/Gau-3697591.inp" -scrdir="/home/futera/Documents/2025-nife2o4-params/bond-parameters/pbe0-lanl2dz/"
 Entering Link 1 = /opt/modules/software/gaussian/G16-C01/l1.exe PID=   3697592.
  
 Copyright (c) 1988-2019, Gaussian, Inc.  All Rights Reserved.
  
 This is part of the Gaussian(R) 16 program.  It is based on
 the Gaussian(R) 09 system (copyright 2009, Gaussian, Inc.),
 the Gaussian(R) 03 system (copyright 2003, Gaussian, Inc.),
 the Gaussian(R) 98 system (copyright 1998, Gaussian, Inc.),
 the Gaussian(R) 94 system (copyright 1995, Gaussian, Inc.),
 the Gaussian 92(TM) system (copyright 1992, Gaussian, Inc.),
 the Gaussian 90(TM) system (copyright 1990, Gaussian, Inc.),
 the Gaussian 88(TM) system (copyright 1988, Gaussian, Inc.),
 the Gaussian 86(TM) system (copyright 1986, Carnegie Mellon
 University), and the Gaussian 82(TM) system (copyright 1983,
 Carnegie Mellon University). Gaussian is a federally registered
 trademark of Gaussian, Inc.
  
 This software contains proprietary and confidential information,
 including trade secrets, belonging to Gaussian, Inc.
  
 This software is provided under written license and may be
 used, copied, transmitted, or stored only in accord with that
 written license.
  
 The following legend is applicable only to US Government
 contracts under FAR:
  
                    RESTRICTED RIGHTS LEGEND
  
 Use, reproduction and disclosure by the US Government is
 subject to restrictions as set forth in subparagraphs (a)
 and (c) of the Commercial Computer Software - Restricted
 Rights clause in FAR 52.227-19.
  
 Gaussian, Inc.
 340 Quinnipiac St., Bldg. 40, Wallingford CT 06492
  
  
 ---------------------------------------------------------------
 Warning -- This program may not be used in any manner that
 competes with the business of Gaussian, Inc. or will provide
 assistance to any competitor of Gaussian, Inc.  The licensee
 of this program is prohibited from giving any competitor of
 Gaussian, Inc. access to this program.  By using this program,
 the user acknowledges that Gaussian, Inc. is engaged in the
 business of creating and licensing software in the field of
 computational chemistry and represents and warrants to the
 licensee that it is not a competitor of Gaussian, Inc. and that
 it will not use this program in any manner prohibited above.
 ---------------------------------------------------------------
  

 Cite this work as:
 Gaussian 16, Revision C.01,
 M. J. Frisch, G. W. Trucks, H. B. Schlegel, G. E. Scuseria, 
 M. A. Robb, J. R. Cheeseman, G. Scalmani, V. Barone, 
 G. A. Petersson, H. Nakatsuji, X. Li, M. Caricato, A. V. Marenich, 
 J. Bloino, B. G. Janesko, R. Gomperts, B. Mennucci, H. P. Hratchian, 
 J. V. Ortiz, A. F. Izmaylov, J. L. Sonnenberg, D. Williams-Young, 
 F. Ding, F. Lipparini, F. Egidi, J. Goings, B. Peng, A. Petrone, 
 T. Henderson, D. Ranasinghe, V. G. Zakrzewski, J. Gao, N. Rega, 
 G. Zheng, W. Liang, M. Hada, M. Ehara, K. Toyota, R. Fukuda, 
 J. Hasegawa, M. Ishida, T. Nakajima, Y. Honda, O. Kitao, H. Nakai, 
 T. Vreven, K. Throssell, J. A. Montgomery, Jr., J. E. Peralta, 
 F. Ogliaro, M. J. Bearpark, J. J. Heyd, E. N. Brothers, K. N. Kudin, 
 V. N. Staroverov, T. A. Keith, R. Kobayashi, J. Normand, 
 K. Raghavachari, A. P. Rendell, J. C. Burant, S. S. Iyengar, 
 J. Tomasi, M. Cossi, J. M. Millam, M. Klene, C. Adamo, R. Cammi, 
 J. W. Ochterski, R. L. Martin, K. Morokuma, O. Farkas, 
 J. B. Foresman, and D. J. Fox, Gaussian, Inc., Wallingford CT, 2019.
 
 ******************************************
 Gaussian 16:  ES64L-G16RevC.01  3-Jul-2019
                18-Oct-2025 
 ******************************************
 %mem=32GB
 %nproc=8
 Will use up to    8 processors via shared memory.
 %chk=nio4.chk
 ----------------------------------------------------------------------
 #p PBE1PBE/GenECP SCF(Tight,XQC,MaxCycle=500,MaxConventional=20) Opt(M
 axCycle=500)
 ----------------------------------------------------------------------
 1/6=500,18=20,19=15,26=3,38=1/1,3;
 2/9=110,12=2,17=6,18=5,40=1/2;
 3/5=7,11=2,16=1,17=8,25=1,30=1,71=1,74=-13/1,2,3;
 4//1;
 5/5=2,7=500,8=3,13=1,32=2,38=5,85=20/2,8;
 6/7=2,8=2,9=2,10=2,28=1/1;
 7//1,2,3,16;
 1/6=500,18=20,19=15,26=3/3(2);
 2/9=110/2;
 99//99;
 2/9=110/2;
 3/5=7,6=1,11=2,16=1,17=8,25=1,30=1,71=1,74=-13,82=7/1,2,3;
 4/5=5,16=3,69=1/1;
 5/5=2,7=500,8=3,13=1,32=2,38=5,85=20/2,8;
 7//1,2,3,16;
 1/6=500,18=20,19=15,26=3/3(-5);
 2/9=110/2;
 6/7=2,8=2,9=2,10=2,19=2,28=1/1;
 99/9=1/99;
 Leave Link    1 at Sat Oct 18 11:59:36 2025, MaxMem=  4294967296 cpu:               0.2 elap:               0.0
 (Enter /opt/modules/software/gaussian/G16-C01/l101.exe)
 -----------------------------
 Nickel ferrate (PBE0/LANL2DZ)
 -----------------------------
 Symbolic Z-matrix:
 Charge = -6 Multiplicity = 1
 Ni                    1.49907  -0.86549   3.05996 
 O                    -0.10902   0.06294   3.71647 
 O                     1.49907  -2.72235   3.71647 
 O                     1.49907  -0.86549   1.09046 
 O                     3.10716   0.06294   3.71646 
 
 ITRead=  0  0  0  0  0
 MicOpt= -1 -1 -1 -1 -1
 NAtoms=      5 NQM=        5 NQMF=       0 NMMI=      0 NMMIF=      0
                NMic=       0 NMicF=      0.
                    Isotopes and Nuclear Properties:
 (Nuclear quadrupole moments (NQMom) in fm**2, nuclear magnetic moments (NMagM)
  in nuclear magnetons)

  Atom         1           2           3           4           5
 IAtWgt=          58          16          16          16          16
 AtmWgt=  57.9353471  15.9949146  15.9949146  15.9949146  15.9949146
 NucSpn=           0           0           0           0           0
 AtZEff=  -0.0000000  -0.0000000  -0.0000000  -0.0000000  -0.0000000
 NQMom=    0.0000000   0.0000000   0.0000000   0.0000000   0.0000000
 NMagM=    0.0000000   0.0000000   0.0000000   0.0000000   0.0000000
 AtZNuc=  28.0000000   8.0000000   8.0000000   8.0000000   8.0000000
 Leave Link  101 at Sat Oct 18 11:59:36 2025, MaxMem=  4294967296 cpu:               2.6 elap:               0.3
 (Enter /opt/modules/software/gaussian/G16-C01/l103.exe)

 GradGradGradGradGradGradGradGradGradGradGradGradGradGradGradGradGradGrad
 Berny optimization.
 Initialization pass.
                           ----------------------------
                           !    Initial Parameters    !
                           ! (Angstroms and Degrees)  !
 --------------------------                            --------------------------
 ! Name  Definition              Value          Derivative Info.                !
 --------------------------------------------------------------------------------
 ! R1    R(1,2)                  1.9695         estimate D2E/DX2                !
 ! R2    R(1,3)                  1.9695         estimate D2E/DX2                !
 ! R3    R(1,4)                  1.9695         estimate D2E/DX2                !
 ! R4    R(1,5)                  1.9695         estimate D2E/DX2                !
 ! A1    A(2,1,3)              109.4712         estimate D2E/DX2                !
 ! A2    A(2,1,4)              109.4713         estimate D2E/DX2                !
 ! A3    A(2,1,5)              109.4712         estimate D2E/DX2                !
 ! A4    A(3,1,4)              109.4712         estimate D2E/DX2                !
 ! A5    A(3,1,5)              109.4712         estimate D2E/DX2                !
 ! A6    A(4,1,5)              109.4712         estimate D2E/DX2                !
 ! D1    D(2,1,4,3)           -120.0            estimate D2E/DX2                !
 ! D2    D(2,1,5,3)            120.0            estimate D2E/DX2                !
 ! D3    D(2,1,5,4)           -120.0            estimate D2E/DX2                !
 ! D4    D(3,1,5,4)            120.0            estimate D2E/DX2                !
 --------------------------------------------------------------------------------
 Trust Radius=3.00D-01 FncErr=1.00D-07 GrdErr=1.00D-06 EigMax=2.50D+02 EigMin=1.00D-04
 Number of steps in this run=    100 maximum allowed number of steps=    100.
 GradGradGradGradGradGradGradGradGradGradGradGradGradGradGradGradGradGrad

 Leave Link  103 at Sat Oct 18 11:59:36 2025, MaxMem=  4294967296 cpu:               0.2 elap:               0.0
 (Enter /opt/modules/software/gaussian/G16-C01/l202.exe)
                          Input orientation:                          
 ---------------------------------------------------------------------
 Center     Atomic      Atomic             Coordinates (Angstroms)
 Number     Number       Type             X           Y           Z
 ---------------------------------------------------------------------
      1         28           0        1.499070   -0.865489    3.059964
      2          8           0       -0.109020    0.062943    3.716465
      3          8           0        1.499070   -2.722352    3.716465
      4          8           0        1.499070   -0.865490    1.090464
      5          8           0        3.107161    0.062943    3.716464
 ---------------------------------------------------------------------
                    Distance matrix (angstroms):
                    1          2          3          4          5
     1  Ni   0.000000
     2  O    1.969501   0.000000
     3  O    1.969501   3.216181   0.000000
     4  O    1.969500   3.216181   3.216181   0.000000
     5  O    1.969501   3.216181   3.216182   3.216181   0.000000
 Stoichiometry    NiO4(6-)
 Framework group  D2D[O(Ni),2SGD(O2)]
 Deg. of freedom     2
 Full point group                 D2D     NOp   8
 Largest Abelian subgroup         C2V     NOp   4
 Largest concise Abelian subgroup C2V     NOp   4
                         Standard orientation:                         
 ---------------------------------------------------------------------
 Center     Atomic      Atomic             Coordinates (Angstroms)
 Number     Number       Type             X           Y           Z
 ---------------------------------------------------------------------
      1         28           0       -0.000000   -0.000000    0.000000
      2          8           0       -0.000000    1.608091    1.137092
      3          8           0       -1.608091    0.000000   -1.137092
      4          8           0        1.608091   -0.000000   -1.137092
      5          8           0       -0.000000   -1.608091    1.137092
 ---------------------------------------------------------------------
 Rotational constants (GHZ):           3.0545995           3.0545995           3.0545990
 Leave Link  202 at Sat Oct 18 11:59:36 2025, MaxMem=  4294967296 cpu:               0.0 elap:               0.0
 (Enter /opt/modules/software/gaussian/G16-C01/l301.exe)
 General basis read from cards:  (5D, 7F)
 Centers:       2      3      4      5
 S 7 1.00
     Exponent=  7.8170000000D+03 Coefficients=  1.1760000000D-03
     Exponent=  1.1760000000D+03 Coefficients=  8.9680000000D-03
     Exponent=  2.7320000000D+02 Coefficients=  4.2868000000D-02
     Exponent=  8.1170000000D+01 Coefficients=  1.4393000000D-01
     Exponent=  2.7180000000D+01 Coefficients=  3.5563000000D-01
     Exponent=  9.5320000000D+00 Coefficients=  4.6124800000D-01
     Exponent=  3.4140000000D+00 Coefficients=  1.4020600000D-01
 S 2 1.00
     Exponent=  9.5320000000D+00 Coefficients= -1.5415300000D-01
     Exponent=  9.3980000000D-01 Coefficients=  1.0569140000D+00
 S 1 1.00
     Exponent=  2.8460000000D-01 Coefficients=  1.0000000000D+00
 P 4 1.00
     Exponent=  3.5180000000D+01 Coefficients=  1.9580000000D-02
     Exponent=  7.9040000000D+00 Coefficients=  1.2420000000D-01
     Exponent=  2.3050000000D+00 Coefficients=  3.9471400000D-01
     Exponent=  7.1710000000D-01 Coefficients=  6.2737600000D-01
 P 1 1.00
     Exponent=  2.1370000000D-01 Coefficients=  1.0000000000D+00
 ****
 Centers:       1
 S 3 1.00
     Exponent=  7.6200000000D+00 Coefficients= -4.0825500000D-01
     Exponent=  2.2940000000D+00 Coefficients=  7.4553080000D-01
     Exponent=  8.7600000000D-01 Coefficients=  5.3257210000D-01
 S 4 1.00
     Exponent=  7.6200000000D+00 Coefficients=  1.8725910000D-01
     Exponent=  2.2940000000D+00 Coefficients= -3.9669640000D-01
     Exponent=  8.7600000000D-01 Coefficients= -4.9540030000D-01
     Exponent=  1.1530000000D-01 Coefficients=  1.0844343000D+00
 S 1 1.00
     Exponent=  3.9600000000D-02 Coefficients=  1.0000000000D+00
 P 3 1.00
     Exponent=  2.3660000000D+01 Coefficients= -4.8155800000D-02
     Exponent=  2.8930000000D+00 Coefficients=  6.2584730000D-01
     Exponent=  9.4350000000D-01 Coefficients=  4.7151580000D-01
 P 1 1.00
     Exponent=  8.4000000000D-02 Coefficients=  1.0000000000D+00
 P 1 1.00
     Exponent=  2.4000000000D-02 Coefficients=  1.0000000000D+00
 D 4 1.00
     Exponent=  4.2720000000D+01 Coefficients=  3.7269900000D-02
     Exponent=  1.1760000000D+01 Coefficients=  1.9561030000D-01
     Exponent=  3.8170000000D+00 Coefficients=  4.5612730000D-01
     Exponent=  1.1690000000D+00 Coefficients=  5.6215870000D-01
 D 1 1.00
     Exponent=  2.8360000000D-01 Coefficients=  1.0000000000D+00
 ****
 ======================================================================================================
                                       Pseudopotential Parameters
 ======================================================================================================
  Center     Atomic      Valence      Angular      Power
  Number     Number     Electrons     Momentum     of R      Exponent        Coefficient   SO-Coeffient
 ======================================================================================================
    1         28           18
                                      D and up 
                                                     1      469.9324331      -10.00000000    0.00000000
                                                     2       85.4236411      -69.40848050    0.00000000
                                                     2       21.2674984      -12.09510200    0.00000000
                                      S - D
                                                     0      162.1686097        3.00000000    0.00000000
                                                     1      176.5333232       22.02536180    0.00000000
                                                     2       68.9562010      443.01810880    0.00000000
                                                     2       13.5792838      145.56964110    0.00000000
                                      P - D
                                                     0       69.0181506        5.00000000    0.00000000
                                                     1      275.5955596        4.98828240    0.00000000
                                                     2       47.1315453      256.69458530    0.00000000
                                                     2       12.9874075       78.47544500    0.00000000
    2          8
                                   No pseudopotential on this center.
    3          8
                                   No pseudopotential on this center.
    4          8
                                   No pseudopotential on this center.
    5          8
                                   No pseudopotential on this center.
 ======================================================================================================
 Ernie: Thresh=  0.10000D-02 Tol=  0.10000D-05 Strict=F.
 Ernie:  1 primitive shells out of 78 were deleted.
 There are    26 symmetry adapted cartesian basis functions of A1  symmetry.
 There are     6 symmetry adapted cartesian basis functions of A2  symmetry.
 There are    14 symmetry adapted cartesian basis functions of B1  symmetry.
 There are    14 symmetry adapted cartesian basis functions of B2  symmetry.
 There are    24 symmetry adapted basis functions of A1  symmetry.
 There are     6 symmetry adapted basis functions of A2  symmetry.
 There are    14 symmetry adapted basis functions of B1  symmetry.
 There are    14 symmetry adapted basis functions of B2  symmetry.
    58 basis functions,   152 primitive gaussians,    60 cartesian basis functions
    28 alpha electrons       28 beta electrons
       nuclear repulsion energy       217.9448976757 Hartrees.
 IExCor= 1009 DFT=T Ex+Corr=PBE1PBE ExCW=0 ScaHFX=  0.250000
 ScaDFX=  0.750000  0.750000  1.000000  1.000000 ScalE2=  1.000000  1.000000
 IRadAn=      5 IRanWt=     -1 IRanGd=            0 ICorTp=0 IEmpDi=  4
 NAtoms=    5 NActive=    5 NUniq=    2 SFac= 4.00D+00 NAtFMM=   60 NAOKFM=F Big=F
 Integral buffers will be    131072 words long.
 Raffenetti 2 integral format.
 Two-electron integral symmetry is turned on.
 Leave Link  301 at Sat Oct 18 11:59:36 2025, MaxMem=  4294967296 cpu:               0.7 elap:               0.1
 (Enter /opt/modules/software/gaussian/G16-C01/l302.exe)
 NPDir=0 NMtPBC=     1 NCelOv=     1 NCel=       1 NClECP=     1 NCelD=      1
         NCelK=      1 NCelE2=     1 NClLst=     1 CellRange=     0.0.
 One-electron integrals computed using PRISM.
 One-electron integral symmetry used in STVInt
   8 Symmetry operations used in ECPInt.
 ECPInt:  NShTT=     406 NPrTT=    3130 LenC2=     401 LenP2D=    2286.
 LDataN:  DoStor=T MaxTD1= 4 Len=   56
 NBasis=    58 RedAO= T EigKep=  4.92D-02  NBF=    24     6    14    14
 NBsUse=    58 1.00D-06 EigRej= -1.00D+00 NBFU=    24     6    14    14
 Precomputing XC quadrature grid using
 IXCGrd= 4 IRadAn=           5 IRanWt=          -1 IRanGd=           0 AccXCQ= 0.00D+00.
 Generated NRdTot=       0 NPtTot=           0 NUsed=           0 NTot=          32
 NSgBfM=    60    60    60    60    60 MxSgAt=     5 MxSgA2=     5.
 Leave Link  302 at Sat Oct 18 11:59:36 2025, MaxMem=  4294967296 cpu:               0.6 elap:               0.1
 (Enter /opt/modules/software/gaussian/G16-C01/l303.exe)
 DipDrv:  MaxL=1.
 Leave Link  303 at Sat Oct 18 11:59:36 2025, MaxMem=  4294967296 cpu:               0.1 elap:               0.0
 (Enter /opt/modules/software/gaussian/G16-C01/l401.exe)
 ExpMin= 2.40D-02 ExpMax= 7.82D+03 ExpMxC= 2.73D+02 IAcc=3 IRadAn=         5 AccDes= 0.00D+00
 Harris functional with IExCor= 1009 and IRadAn=       5 diagonalized for initial guess.
 HarFok:  IExCor= 1009 AccDes= 0.00D+00 IRadAn=         5 IDoV= 1 UseB2=F ITyADJ=14
 ICtDFT=  3500011 ScaDFX=  1.000000  1.000000  1.000000  1.000000
 FoFCou: FMM=F IPFlag=           0 FMFlag=      100000 FMFlg1=           0
         NFxFlg=           0 DoJE=T BraDBF=F KetDBF=T FulRan=T
         wScrn=  0.000000 ICntrl=       500 IOpCl=  0 I1Cent=   200000004 NGrid=           0
         NMat0=    1 NMatS0=      1 NMatT0=    0 NMatD0=    1 NMtDS0=    0 NMtDT0=    0
 Petite list used in FoFCou.
 Harris En= -471.396617507540    
 JPrj=0 DoOrth=F DoCkMO=F.
 Initial guess orbital symmetries:
       Occupied  (A1) (E) (E) (B2) (A1) (E) (E) (B2) (A1) (E) (E)
                 (B2) (A1) (E) (E) (B2) (B1) (A1) (B2) (E) (E)
                 (A2) (E) (E) (B1) (A1) (E) (E)
       Virtual   (B2) (A1) (B2) (E) (E) (B2) (E) (E) (A1) (B1)
                 (A1) (E) (E) (B2) (A2) (E) (E) (E) (E) (B2) (B1)
                 (A1) (E) (E) (B2) (A1) (E) (E) (B2) (A1)
 The electronic state of the initial guess is 1-A1.
 Leave Link  401 at Sat Oct 18 11:59:36 2025, MaxMem=  4294967296 cpu:               0.6 elap:               0.1
 (Enter /opt/modules/software/gaussian/G16-C01/l502.exe)
 Keep R1 ints in memory in symmetry-blocked form, NReq=8551356.
 FoFCou: FMM=F IPFlag=           0 FMFlag=           0 FMFlg1=           0
         NFxFlg=           0 DoJE=F BraDBF=F KetDBF=F FulRan=T
         wScrn=  0.000000 ICntrl=       600 IOpCl=  0 I1Cent=           0 NGrid=           0
         NMat0=    1 NMatS0=   1711 NMatT0=    0 NMatD0=    1 NMtDS0=    0 NMtDT0=    0
 Petite list used in FoFCou.
 Closed shell SCF:
 Using DIIS extrapolation, IDIIS=  1040.
 NGot=  4294967296 LenX=  4294577260 LenY=  4294573219
 Requested convergence on RMS density matrix=1.00D-08 within  20 cycles.
 Requested convergence on MAX density matrix=1.00D-06.
 Requested convergence on             energy=1.00D-06.
 No special actions if energy rises.

 Cycle   1  Pass 1  IDiag  1:
 E= -465.539897324758    
 DIIS: error= 1.45D-01 at cycle   1 NSaved=   1.
 NSaved= 1 IEnMin= 1 EnMin= -465.539897324758     IErMin= 1 ErrMin= 1.45D-01
 ErrMax= 1.45D-01  0.00D+00 EMaxC= 1.00D-01 BMatC= 1.48D+00 BMatP= 1.48D+00
 IDIUse=3 WtCom= 0.00D+00 WtEn= 1.00D+00
 Coeff-Com:  0.100D+01
 Coeff-En:   0.100D+01
 Coeff:      0.100D+01
 Gap=     0.022 Goal=   None    Shift=    0.000
 GapD=    0.022 DampG=0.250 DampE=0.125 DampFc=0.1250 IDamp=-1.
 Damping current iteration by 1.25D-01
 RMSDP=1.10D-01 MaxDP=2.31D+00              OVMax= 9.03D-01

 Cycle   2  Pass 1  IDiag  1:
 E= -466.211466915379     Delta-E=       -0.671569590621 Rises=F Damp=T
 DIIS: error= 8.89D-02 at cycle   2 NSaved=   2.
 NSaved= 2 IEnMin= 2 EnMin= -466.211466915379     IErMin= 2 ErrMin= 8.89D-02
 ErrMax= 8.89D-02  0.00D+00 EMaxC= 1.00D-01 BMatC= 4.80D-01 BMatP= 1.48D+00
 IDIUse=3 WtCom= 1.11D-01 WtEn= 8.89D-01
 Coeff-Com: -0.126D+01 0.226D+01
 Coeff-En:   0.000D+00 0.100D+01
 Coeff:     -0.140D+00 0.114D+01
 Gap=     0.007 Goal=   None    Shift=    0.000
 RMSDP=8.74D-02 MaxDP=1.88D+00 DE=-6.72D-01 OVMax= 2.03D-01

 Cycle   3  Pass 1  IDiag  1:
 E= -463.677036304792     Delta-E=        2.534430610587 Rises=F Damp=F
 DIIS: error= 2.53D-01 at cycle   3 NSaved=   3.
 NSaved= 3 IEnMin= 2 EnMin= -466.211466915379     IErMin= 2 ErrMin= 8.89D-02
 ErrMax= 2.53D-01  0.00D+00 EMaxC= 1.00D-01 BMatC= 3.14D+00 BMatP= 4.80D-01
 IDIUse=2 WtCom= 0.00D+00 WtEn= 1.00D+00
 EnCoef did   100 forward-backward iterations
 Coeff-En:   0.584D+00 0.319D-01 0.384D+00
 Coeff:      0.584D+00 0.319D-01 0.384D+00
 Gap=     0.000 Goal=   None    Shift=    0.000
 RMSDP=5.99D-02 MaxDP=2.16D+00 DE= 2.53D+00 OVMax= 3.59D-01

 Cycle   4  Pass 1  IDiag  1:
 E= -465.025651763097     Delta-E=       -1.348615458305 Rises=F Damp=F
 DIIS: error= 3.86D-01 at cycle   4 NSaved=   4.
 NSaved= 4 IEnMin= 2 EnMin= -466.211466915379     IErMin= 2 ErrMin= 8.89D-02
 ErrMax= 3.86D-01  0.00D+00 EMaxC= 1.00D-01 BMatC= 3.67D+00 BMatP= 4.80D-01
 IDIUse=2 WtCom= 0.00D+00 WtEn= 1.00D+00
 EnCoef did   100 forward-backward iterations
 Coeff-En:   0.497D+00 0.149D-01 0.314D+00 0.174D+00
 Coeff:      0.497D+00 0.149D-01 0.314D+00 0.174D+00
 Gap=     0.079 Goal=   None    Shift=    0.000
 RMSDP=4.58D-02 MaxDP=6.68D-01 DE=-1.35D+00 OVMax= 4.96D-01

 Cycle   5  Pass 1  IDiag  1:
 Density matrix breaks symmetry, PCut= 1.00D-04
 Density has only Abelian symmetry.
 E= -465.964349246040     Delta-E=       -0.938697482942 Rises=F Damp=F
 DIIS: error= 1.80D-01 at cycle   5 NSaved=   5.
 NSaved= 5 IEnMin= 2 EnMin= -466.211466915379     IErMin= 2 ErrMin= 8.89D-02
 ErrMax= 1.80D-01  0.00D+00 EMaxC= 1.00D-01 BMatC= 1.55D+00 BMatP= 4.80D-01
 IDIUse=2 WtCom= 0.00D+00 WtEn= 1.00D+00
 EnCoef did   100 forward-backward iterations
 Coeff-En:   0.132D+00 0.194D-01 0.000D+00 0.361D+00 0.488D+00
 Coeff:      0.132D+00 0.194D-01 0.000D+00 0.361D+00 0.488D+00
 Gap=    -0.040 Goal=   None    Shift=    0.000
 RMSDP=3.65D-02 MaxDP=1.20D+00 DE=-9.39D-01 OVMax= 7.46D-01

 Cycle   6  Pass 1  IDiag  1:
 Density matrix breaks symmetry, PCut= 1.00D-04
 Density has only Abelian symmetry.
 E= -466.654063871741     Delta-E=       -0.689714625701 Rises=F Damp=F
 DIIS: error= 8.42D-02 at cycle   6 NSaved=   6.
 NSaved= 6 IEnMin= 6 EnMin= -466.654063871741     IErMin= 6 ErrMin= 8.42D-02
 ErrMax= 8.42D-02  0.00D+00 EMaxC= 1.00D-01 BMatC= 7.91D-01 BMatP= 4.80D-01
 IDIUse=2 WtCom= 0.00D+00 WtEn= 1.00D+00
 EnCoef did     3 forward-backward iterations
 Coeff-En:   0.000D+00 0.000D+00 0.000D+00 0.345D+00 0.349D+00 0.305D+00
 Coeff:      0.000D+00 0.000D+00 0.000D+00 0.345D+00 0.349D+00 0.305D+00
 Gap=     0.036 Goal=   None    Shift=    0.000
 RMSDP=2.85D-02 MaxDP=5.09D-01 DE=-6.90D-01 OVMax= 4.70D-01

 Cycle   7  Pass 1  IDiag  1:
 Density matrix breaks symmetry, PCut= 1.00D-04
 Density has only Abelian symmetry.
 E= -466.820060018769     Delta-E=       -0.165996147028 Rises=F Damp=F
 DIIS: error= 8.46D-02 at cycle   7 NSaved=   7.
 NSaved= 7 IEnMin= 7 EnMin= -466.820060018769     IErMin= 6 ErrMin= 8.42D-02
 ErrMax= 8.46D-02  0.00D+00 EMaxC= 1.00D-01 BMatC= 6.60D-01 BMatP= 4.80D-01
 IDIUse=2 WtCom= 0.00D+00 WtEn= 1.00D+00
 EnCoef did     6 forward-backward iterations
 Coeff-En:   0.000D+00 0.000D+00 0.000D+00 0.279D+00 0.205D+00 0.292D+00
 Coeff-En:   0.224D+00
 Coeff:      0.000D+00 0.000D+00 0.000D+00 0.279D+00 0.205D+00 0.292D+00
 Coeff:      0.224D+00
 Gap=    -0.002 Goal=   None    Shift=    0.000
 RMSDP=4.50D-02 MaxDP=1.57D+00 DE=-1.66D-01 OVMax= 9.91D-01

 Cycle   8  Pass 1  IDiag  1:
 Density matrix breaks symmetry, PCut= 1.00D-04
 Density has only Abelian symmetry.
 E= -467.446625718655     Delta-E=       -0.626565699886 Rises=F Damp=F
 DIIS: error= 4.05D-02 at cycle   8 NSaved=   8.
 NSaved= 8 IEnMin= 8 EnMin= -467.446625718655     IErMin= 8 ErrMin= 4.05D-02
 ErrMax= 4.05D-02  0.00D+00 EMaxC= 1.00D-01 BMatC= 9.48D-02 BMatP= 4.80D-01
 IDIUse=3 WtCom= 5.95D-01 WtEn= 4.05D-01
 EnCoef did     6 forward-backward iterations
 Coeff-Com: -0.440D+00 0.843D+00-0.313D-01 0.195D-01-0.309D-02 0.617D-01
 Coeff-Com:  0.642D-01 0.486D+00
 Coeff-En:   0.000D+00 0.000D+00 0.000D+00 0.214D-01 0.000D+00 0.160D+00
 Coeff-En:   0.171D+00 0.648D+00
 Coeff:     -0.262D+00 0.502D+00-0.186D-01 0.203D-01-0.184D-02 0.102D+00
 Coeff:      0.107D+00 0.551D+00
 Gap=     0.029 Goal=   None    Shift=    0.000
 RMSDP=1.33D-02 MaxDP=2.25D-01 DE=-6.27D-01 OVMax= 2.79D-01

 Cycle   9  Pass 1  IDiag  1:
 Density matrix breaks symmetry, PCut= 1.00D-04
 Density has only Abelian symmetry.
 E= -466.235714936687     Delta-E=        1.210910781968 Rises=F Damp=F
 DIIS: error= 2.93D-01 at cycle   9 NSaved=   9.
 NSaved= 9 IEnMin= 8 EnMin= -467.446625718655     IErMin= 8 ErrMin= 4.05D-02
 ErrMax= 2.93D-01  0.00D+00 EMaxC= 1.00D-01 BMatC= 2.15D+00 BMatP= 9.48D-02
 IDIUse=2 WtCom= 0.00D+00 WtEn= 1.00D+00
 EnCoef did   100 forward-backward iterations
 Coeff-En:   0.000D+00 0.000D+00 0.000D+00 0.315D-02 0.000D+00 0.169D+00
 Coeff-En:   0.173D+00 0.592D+00 0.627D-01
 Coeff:      0.000D+00 0.000D+00 0.000D+00 0.315D-02 0.000D+00 0.169D+00
 Coeff:      0.173D+00 0.592D+00 0.627D-01
 Gap=    -0.016 Goal=   None    Shift=    0.000
 RMSDP=4.83D-02 MaxDP=1.63D+00 DE= 1.21D+00 OVMax= 9.47D-01

 Cycle  10  Pass 1  IDiag  1:
 Density matrix breaks symmetry, PCut= 1.00D-04
 Density has only Abelian symmetry.
 E= -467.340891680250     Delta-E=       -1.105176743563 Rises=F Damp=F
 DIIS: error= 5.13D-02 at cycle  10 NSaved=  10.
 NSaved=10 IEnMin= 8 EnMin= -467.446625718655     IErMin= 8 ErrMin= 4.05D-02
 ErrMax= 5.13D-02  0.00D+00 EMaxC= 1.00D-01 BMatC= 1.81D-01 BMatP= 9.48D-02
 IDIUse=2 WtCom= 0.00D+00 WtEn= 1.00D+00
 EnCoef did   100 forward-backward iterations
 Coeff-En:   0.000D+00 0.000D+00 0.000D+00 0.000D+00 0.000D+00 0.986D-03
 Coeff-En:   0.756D-03 0.582D+00 0.524D-02 0.411D+00
 Coeff:      0.000D+00 0.000D+00 0.000D+00 0.000D+00 0.000D+00 0.986D-03
 Coeff:      0.756D-03 0.582D+00 0.524D-02 0.411D+00
 Gap=     0.011 Goal=   None    Shift=    0.000
 RMSDP=1.88D-02 MaxDP=5.93D-01 DE=-1.11D+00 OVMax= 4.84D-01

 Cycle  11  Pass 1  IDiag  1:
 Density matrix breaks symmetry, PCut= 1.00D-04
 Density has only Abelian symmetry.
 E= -467.534406231732     Delta-E=       -0.193514551482 Rises=F Damp=F
 DIIS: error= 2.73D-02 at cycle  11 NSaved=  11.
 NSaved=11 IEnMin=11 EnMin= -467.534406231732     IErMin=11 ErrMin= 2.73D-02
 ErrMax= 2.73D-02  0.00D+00 EMaxC= 1.00D-01 BMatC= 5.76D-02 BMatP= 9.48D-02
 IDIUse=3 WtCom= 7.27D-01 WtEn= 2.73D-01
 EnCoef did     5 forward-backward iterations
 Coeff-Com: -0.616D-01 0.123D+00-0.517D-02-0.323D-01 0.758D-02-0.256D-01
 Coeff-Com: -0.402D-01 0.421D+00 0.660D-01 0.264D+00 0.283D+00
 Coeff-En:   0.000D+00 0.000D+00 0.000D+00 0.000D+00 0.000D+00 0.000D+00
 Coeff-En:   0.000D+00 0.152D+00 0.916D-01 0.000D+00 0.757D+00
 Coeff:     -0.447D-01 0.892D-01-0.376D-02-0.234D-01 0.550D-02-0.186D-01
 Coeff:     -0.292D-01 0.348D+00 0.730D-01 0.192D+00 0.413D+00
 Gap=     0.026 Goal=   None    Shift=    0.000
 RMSDP=1.73D-02 MaxDP=5.26D-01 DE=-1.94D-01 OVMax= 3.31D-01

 Cycle  12  Pass 1  IDiag  1:
 Density matrix breaks symmetry, PCut= 1.00D-04
 Density has only Abelian symmetry.
 E= -467.473703263112     Delta-E=        0.060702968621 Rises=F Damp=F
 DIIS: error= 6.02D-02 at cycle  12 NSaved=  12.
 NSaved=12 IEnMin=11 EnMin= -467.534406231732     IErMin=11 ErrMin= 2.73D-02
 ErrMax= 6.02D-02  0.00D+00 EMaxC= 1.00D-01 BMatC= 1.53D-01 BMatP= 5.76D-02
 IDIUse=2 WtCom= 0.00D+00 WtEn= 1.00D+00
 Coeff-En:   0.000D+00 0.000D+00 0.000D+00 0.000D+00 0.000D+00 0.000D+00
 Coeff-En:   0.000D+00 0.000D+00 0.000D+00 0.000D+00 0.606D+00 0.394D+00
 Coeff:      0.000D+00 0.000D+00 0.000D+00 0.000D+00 0.000D+00 0.000D+00
 Coeff:      0.000D+00 0.000D+00 0.000D+00 0.000D+00 0.606D+00 0.394D+00
 Gap=     0.038 Goal=   None    Shift=    0.000
 RMSDP=6.83D-03 MaxDP=1.86D-01 DE= 6.07D-02 OVMax= 1.15D-01

 Cycle  13  Pass 1  IDiag  1:
 Density matrix breaks symmetry, PCut= 1.00D-04
 Density has only Abelian symmetry.
 E= -467.572785961115     Delta-E=       -0.099082698003 Rises=F Damp=F
 DIIS: error= 1.39D-02 at cycle  13 NSaved=  13.
 NSaved=13 IEnMin=13 EnMin= -467.572785961115     IErMin=13 ErrMin= 1.39D-02
 ErrMax= 1.39D-02  0.00D+00 EMaxC= 1.00D-01 BMatC= 1.53D-02 BMatP= 5.76D-02
 IDIUse=3 WtCom= 8.61D-01 WtEn= 1.39D-01
 EnCoef did     2 forward-backward iterations
 Coeff-Com: -0.543D-02 0.263D-01-0.129D-02 0.580D-02-0.344D-02-0.362D-01
 Coeff-Com: -0.138D-01-0.576D-01-0.250D-01 0.523D-01 0.324D+00 0.266D+00
 Coeff-Com:  0.468D+00
 Coeff-En:   0.000D+00 0.000D+00 0.000D+00 0.000D+00 0.000D+00 0.000D+00
 Coeff-En:   0.000D+00 0.000D+00 0.000D+00 0.000D+00 0.411D+00 0.261D+00
 Coeff-En:   0.327D+00
 Coeff:     -0.467D-02 0.227D-01-0.111D-02 0.499D-02-0.296D-02-0.312D-01
 Coeff:     -0.119D-01-0.496D-01-0.215D-01 0.450D-01 0.337D+00 0.265D+00
 Coeff:      0.448D+00
 Gap=     0.037 Goal=   None    Shift=    0.000
 RMSDP=3.59D-03 MaxDP=1.04D-01 DE=-9.91D-02 OVMax= 7.00D-02

 Cycle  14  Pass 1  IDiag  1:
 Density matrix breaks symmetry, PCut= 1.00D-04
 Density has only Abelian symmetry.
 E= -467.584552078495     Delta-E=       -0.011766117380 Rises=F Damp=F
 DIIS: error= 7.83D-03 at cycle  14 NSaved=  14.
 NSaved=14 IEnMin=14 EnMin= -467.584552078495     IErMin=14 ErrMin= 7.83D-03
 ErrMax= 7.83D-03  0.00D+00 EMaxC= 1.00D-01 BMatC= 4.26D-03 BMatP= 1.53D-02
 IDIUse=3 WtCom= 9.22D-01 WtEn= 7.83D-02
 EnCoef did     1 forward-backward iterations
 Coeff-Com: -0.841D-02 0.147D-01 0.733D-03 0.536D-02-0.265D-02 0.265D-02
 Coeff-Com: -0.935D-02-0.632D-01-0.112D-01 0.307D-01 0.928D-01 0.206D-01
 Coeff-Com:  0.306D+00 0.621D+00
 Coeff-En:   0.000D+00 0.000D+00 0.000D+00 0.000D+00 0.000D+00 0.000D+00
 Coeff-En:   0.000D+00 0.000D+00 0.000D+00 0.000D+00 0.108D+00 0.000D+00
 Coeff-En:   0.108D+00 0.784D+00
 Coeff:     -0.775D-02 0.136D-01 0.675D-03 0.494D-02-0.244D-02 0.244D-02
 Coeff:     -0.862D-02-0.582D-01-0.103D-01 0.283D-01 0.940D-01 0.190D-01
 Coeff:      0.290D+00 0.634D+00
 Gap=     0.037 Goal=   None    Shift=    0.000
 RMSDP=1.97D-03 MaxDP=7.04D-02 DE=-1.18D-02 OVMax= 4.14D-02

 Cycle  15  Pass 1  IDiag  1:
 Density matrix breaks symmetry, PCut= 1.00D-04
 Density has only Abelian symmetry.
 E= -467.587985697049     Delta-E=       -0.003433618554 Rises=F Damp=F
 DIIS: error= 1.40D-03 at cycle  15 NSaved=  15.
 NSaved=15 IEnMin=15 EnMin= -467.587985697049     IErMin=15 ErrMin= 1.40D-03
 ErrMax= 1.40D-03  0.00D+00 EMaxC= 1.00D-01 BMatC= 2.00D-04 BMatP= 4.26D-03
 IDIUse=3 WtCom= 9.86D-01 WtEn= 1.40D-02
 Coeff-Com: -0.733D-02 0.132D-01-0.162D-03 0.997D-03 0.457D-03 0.216D-03
 Coeff-Com:  0.124D-03 0.150D-02 0.152D-02-0.647D-02-0.665D-02-0.496D-01
 Coeff-Com: -0.464D-01 0.246D+00 0.853D+00
 Coeff-En:   0.000D+00 0.000D+00 0.000D+00 0.000D+00 0.000D+00 0.000D+00
 Coeff-En:   0.000D+00 0.000D+00 0.000D+00 0.000D+00 0.000D+00 0.000D+00
 Coeff-En:   0.000D+00 0.569D-01 0.943D+00
 Coeff:     -0.723D-02 0.130D-01-0.159D-03 0.983D-03 0.451D-03 0.213D-03
 Coeff:      0.122D-03 0.148D-02 0.149D-02-0.638D-02-0.656D-02-0.489D-01
 Coeff:     -0.458D-01 0.243D+00 0.854D+00
 Gap=     0.036 Goal=   None    Shift=    0.000
 RMSDP=9.67D-04 MaxDP=2.67D-02 DE=-3.43D-03 OVMax= 1.12D-02

 Cycle  16  Pass 1  IDiag  1:
 Density matrix breaks symmetry, PCut= 1.00D-04
 Density has only Abelian symmetry.
 E= -467.588234731933     Delta-E=       -0.000249034883 Rises=F Damp=F
 DIIS: error= 1.58D-03 at cycle  16 NSaved=  16.
 NSaved=16 IEnMin=16 EnMin= -467.588234731933     IErMin=15 ErrMin= 1.40D-03
 ErrMax= 1.58D-03  0.00D+00 EMaxC= 1.00D-01 BMatC= 1.82D-04 BMatP= 2.00D-04
 IDIUse=3 WtCom= 9.86D-01 WtEn= 1.40D-02
 Coeff-Com:  0.162D-03-0.865D-04-0.189D-04 0.746D-04 0.120D-03 0.670D-03
 Coeff-Com:  0.178D-03 0.212D-02-0.331D-03-0.784D-03-0.526D-02 0.122D-01
 Coeff-Com: -0.425D-01-0.537D+00-0.361D+00 0.193D+01
 Coeff-En:   0.000D+00 0.000D+00 0.000D+00 0.000D+00 0.000D+00 0.000D+00
 Coeff-En:   0.000D+00 0.000D+00 0.000D+00 0.000D+00 0.000D+00 0.000D+00
 Coeff-En:   0.000D+00 0.000D+00 0.165D+00 0.835D+00
 Coeff:      0.159D-03-0.853D-04-0.186D-04 0.735D-04 0.118D-03 0.661D-03
 Coeff:      0.175D-03 0.209D-02-0.327D-03-0.773D-03-0.519D-02 0.120D-01
 Coeff:     -0.419D-01-0.530D+00-0.353D+00 0.192D+01
 Gap=     0.036 Goal=   None    Shift=    0.000
 RMSDP=1.65D-03 MaxDP=3.99D-02 DE=-2.49D-04 OVMax= 2.89D-02

 Cycle  17  Pass 1  IDiag  1:
 Density matrix breaks symmetry, PCut= 1.00D-04
 Density has only Abelian symmetry.
 E= -467.588557388718     Delta-E=       -0.000322656785 Rises=F Damp=F
 DIIS: error= 2.10D-04 at cycle  17 NSaved=  17.
 NSaved=17 IEnMin=17 EnMin= -467.588557388718     IErMin=17 ErrMin= 2.10D-04
 ErrMax= 2.10D-04  0.00D+00 EMaxC= 1.00D-01 BMatC= 3.76D-06 BMatP= 1.82D-04
 IDIUse=3 WtCom= 9.98D-01 WtEn= 2.10D-03
 Coeff-Com:  0.492D-03-0.112D-02 0.227D-04 0.162D-03-0.740D-04 0.406D-03
 Coeff-Com:  0.323D-03-0.553D-03-0.611D-03-0.239D-03-0.456D-02 0.708D-02
 Coeff-Com:  0.162D-01 0.672D-01-0.167D-01-0.359D+00 0.129D+01
 Coeff-En:   0.000D+00 0.000D+00 0.000D+00 0.000D+00 0.000D+00 0.000D+00
 Coeff-En:   0.000D+00 0.000D+00 0.000D+00 0.000D+00 0.000D+00 0.000D+00
 Coeff-En:   0.000D+00 0.000D+00 0.000D+00 0.000D+00 0.100D+01
 Coeff:      0.491D-03-0.111D-02 0.227D-04 0.162D-03-0.738D-04 0.405D-03
 Coeff:      0.323D-03-0.552D-03-0.610D-03-0.238D-03-0.455D-02 0.706D-02
 Coeff:      0.162D-01 0.670D-01-0.166D-01-0.358D+00 0.129D+01
 Gap=     0.035 Goal=   None    Shift=    0.000
 RMSDP=3.27D-04 MaxDP=8.60D-03 DE=-3.23D-04 OVMax= 5.32D-03

 Cycle  18  Pass 1  IDiag  1:
 Density matrix breaks symmetry, PCut= 1.00D-04
 Density has only Abelian symmetry.
 E= -467.588569567366     Delta-E=       -0.000012178649 Rises=F Damp=F
 DIIS: error= 3.37D-05 at cycle  18 NSaved=  18.
 NSaved=18 IEnMin=18 EnMin= -467.588569567366     IErMin=18 ErrMin= 3.37D-05
 ErrMax= 3.37D-05  0.00D+00 EMaxC= 1.00D-01 BMatC= 1.29D-07 BMatP= 3.76D-06
 IDIUse=1 WtCom= 1.00D+00 WtEn= 0.00D+00
 Coeff-Com: -0.694D-04 0.895D-04 0.255D-04 0.597D-04-0.832D-04-0.369D-04
 Coeff-Com:  0.261D-04-0.110D-02-0.123D-03 0.441D-03 0.273D-02-0.100D-02
 Coeff-Com:  0.681D-02 0.757D-01 0.512D-01-0.263D+00-0.712D-01 0.120D+01
 Coeff:     -0.694D-04 0.895D-04 0.255D-04 0.597D-04-0.832D-04-0.369D-04
 Coeff:      0.261D-04-0.110D-02-0.123D-03 0.441D-03 0.273D-02-0.100D-02
 Coeff:      0.681D-02 0.757D-01 0.512D-01-0.263D+00-0.712D-01 0.120D+01
 Gap=     0.035 Goal=   None    Shift=    0.000
 RMSDP=1.19D-04 MaxDP=2.92D-03 DE=-1.22D-05 OVMax= 2.56D-03

 Cycle  19  Pass 1  IDiag  1:
 Density matrix breaks symmetry, PCut= 1.00D-04
 Density has only Abelian symmetry.
 E= -467.588570733456     Delta-E=       -0.000001166090 Rises=F Damp=F
 DIIS: error= 7.55D-05 at cycle  19 NSaved=  19.
 NSaved=19 IEnMin=19 EnMin= -467.588570733456     IErMin=18 ErrMin= 3.37D-05
 ErrMax= 7.55D-05  0.00D+00 EMaxC= 1.00D-01 BMatC= 4.20D-07 BMatP= 1.29D-07
 IDIUse=1 WtCom= 1.00D+00 WtEn= 0.00D+00
 Coeff-Com: -0.111D-03 0.934D-04 0.125D-04 0.762D-04-0.124D-04 0.998D-06
 Coeff-Com:  0.123D-03-0.292D-03-0.155D-03 0.473D-03-0.897D-03 0.268D-03
 Coeff-Com: -0.402D-02 0.877D-02 0.202D-01-0.485D-01 0.436D-01-0.286D+00
 Coeff-Com:  0.127D+01
 Coeff:     -0.111D-03 0.934D-04 0.125D-04 0.762D-04-0.124D-04 0.998D-06
 Coeff:      0.123D-03-0.292D-03-0.155D-03 0.473D-03-0.897D-03 0.268D-03
 Coeff:     -0.402D-02 0.877D-02 0.202D-01-0.485D-01 0.436D-01-0.286D+00
 Coeff:      0.127D+01
 Gap=     0.036 Goal=   None    Shift=    0.000
 RMSDP=6.59D-05 MaxDP=1.59D-03 DE=-1.17D-06 OVMax= 1.35D-03

 Cycle  20  Pass 1  IDiag  1:
 Density matrix breaks symmetry, PCut= 1.00D-04
 Density has only Abelian symmetry.
 E= -467.588571774831     Delta-E=       -0.000001041375 Rises=F Damp=F
 DIIS: error= 3.21D-05 at cycle  20 NSaved=  20.
 NSaved=20 IEnMin=20 EnMin= -467.588571774831     IErMin=20 ErrMin= 3.21D-05
 ErrMax= 3.21D-05  0.00D+00 EMaxC= 1.00D-01 BMatC= 8.11D-08 BMatP= 1.29D-07
 IDIUse=1 WtCom= 1.00D+00 WtEn= 0.00D+00
 Coeff-Com:  0.348D-03-0.622D-03 0.252D-04 0.933D-05 0.106D-04 0.673D-04
 Coeff-Com:  0.290D-04-0.535D-03-0.578D-04 0.166D-03 0.145D-03 0.798D-03
 Coeff-Com:  0.497D-02 0.326D-02-0.276D-01-0.346D-03 0.141D+00-0.137D+00
 Coeff-Com: -0.930D+00 0.195D+01
 Coeff:      0.348D-03-0.622D-03 0.252D-04 0.933D-05 0.106D-04 0.673D-04
 Coeff:      0.290D-04-0.535D-03-0.578D-04 0.166D-03 0.145D-03 0.798D-03
 Coeff:      0.497D-02 0.326D-02-0.276D-01-0.346D-03 0.141D+00-0.137D+00
 Coeff:     -0.930D+00 0.195D+01
 Gap=     0.036 Goal=   None    Shift=    0.000
 RMSDP=9.20D-05 MaxDP=2.19D-03 DE=-1.04D-06 OVMax= 1.94D-03

 >>>>>>>>>> Convergence criterion not met.
 SCF Done:  E(RPBE1PBE) =  -467.588571775     A.U. after   21 cycles
            NFock= 20  Conv=0.92D-04     -V/T= 2.1583
 KE= 4.036938189829D+02 PE=-1.601640079209D+03 EE= 5.124127907751D+02
 Leave Link  502 at Sat Oct 18 11:59:37 2025, MaxMem=  4294967296 cpu:               4.2 elap:               0.5
 (Enter /opt/modules/software/gaussian/G16-C01/l508.exe)
 Keep R1 ints in memory in symmetry-blocked form, NReq=8551756.
 FoFCou: FMM=F IPFlag=           0 FMFlag=           0 FMFlg1=           0
         NFxFlg=           0 DoJE=F BraDBF=F KetDBF=F FulRan=T
         wScrn=  0.000000 ICntrl=       600 IOpCl=  0 I1Cent=           0 NGrid=           0
         NMat0=    1 NMatS0=   1711 NMatT0=    0 NMatD0=    1 NMtDS0=    0 NMtDT0=    0
 Petite list used in FoFCou.
 Tight linear equation convergence will be used.
 RPBE1PBE wavefunction.
 Quadratic Convergence SCF Method.
 Line search only if initial step raises energy.
 Density matrix breaks symmetry, PCut= 1.00D-04
 Density has only Abelian symmetry.
 Iteration   1 EE= -467.588572410443                                    Grad=5.623D-04 Max rot=    0.0080 deg.
 QCNR:  CnvC1=4.10D-09 CnvC2=4.10D-08
 LinEq1:  Iter=  0 NonCon=     1 RMS=9.79D-05 Max=1.96D-03 NDo=     1
 AX will form     1 AO Fock derivatives at one time.
 LinEq1:  Iter=  1 NonCon=     1 RMS=3.73D-04 Max=6.69D-03 NDo=     1
 LinEq1:  Iter=  2 NonCon=     1 RMS=6.81D-04 Max=1.04D-02 NDo=     1
 LinEq1:  Iter=  3 NonCon=     1 RMS=1.13D-03 Max=1.23D-02 NDo=     1
 LinEq1:  Iter=  4 NonCon=     1 RMS=5.46D-04 Max=6.65D-03 NDo=     1
 LinEq1:  Iter=  5 NonCon=     1 RMS=2.94D-04 Max=3.46D-03 NDo=     1
 LinEq1:  Iter=  6 NonCon=     1 RMS=5.49D-05 Max=4.66D-04 NDo=     1
 LinEq1:  Iter=  7 NonCon=     1 RMS=1.23D-05 Max=1.23D-04 NDo=     1
 LinEq1:  Iter=  8 NonCon=     1 RMS=2.20D-06 Max=2.33D-05 NDo=     1
 LinEq1:  Iter=  9 NonCon=     1 RMS=6.65D-07 Max=9.23D-06 NDo=     1
 LinEq1:  Iter= 10 NonCon=     1 RMS=1.92D-07 Max=1.95D-06 NDo=     1
 LinEq1:  Iter= 11 NonCon=     1 RMS=7.78D-07 Max=1.51D-05 NDo=     1
 LinEq1:  Iter= 12 NonCon=     1 RMS=3.77D-07 Max=4.24D-06 NDo=     1
 LinEq1:  Iter= 13 NonCon=     1 RMS=5.22D-07 Max=9.08D-06 NDo=     1
 LinEq1:  Iter= 14 NonCon=     1 RMS=5.66D-07 Max=7.30D-06 NDo=     1
 LinEq1:  Iter= 15 NonCon=     1 RMS=1.03D-07 Max=8.64D-07 NDo=     1
 LinEq1:  Iter= 16 NonCon=     1 RMS=1.46D-08 Max=1.48D-07 NDo=     1
 LinEq1:  Iter= 17 NonCon=     0 RMS=3.92D-09 Max=3.89D-08 NDo=     1
 Linear equations converged to 4.099D-09 4.099D-08 after    17 iterations.
 Angle between quadratic step and gradient=  80.41 degrees.
     ILin= 1 X=0.000D+00 Y=-4.675885724104D+02 DE= 0.00D+00 F= -1.87D-06
     ILin= 2 X=1.000D+00 Y=-4.675885733501D+02 DE=-9.40D-07 F= -7.76D-09 OKLS=T
     Reject lnstep IMin12=  1  2 Big=T Turn=F Min= 1.004D+00 FVal=-4.675885733501D+02 Lims=  0.00D+00  1.00D+00
     ILin= 3 X=2.000D+00 Y=-4.675885724312D+02 DE=-2.07D-08 F=  1.84D-06
     An  expanding polynomial of degree  3 produced  1.0056
     Minimum is close to point  2 DX=  5.58D-03 DF= -2.89D-11 DXR=  5.55D-03 DFR=  3.07D-05 which will be used.
 Density matrix breaks symmetry, PCut= 1.00D-04
 Density has only Abelian symmetry.
 Iteration   2 EE= -467.588573350122     Delta-E=       -0.000000939679 Grad=9.328D-06 Max rot=    0.0001 deg.
 QCNR:  CnvC1=9.33D-11 CnvC2=9.33D-10
 LinEq1:  Iter=  0 NonCon=     1 RMS=1.01D-06 Max=1.41D-05 NDo=     1
 LinEq1:  Iter=  1 NonCon=     1 RMS=5.50D-06 Max=1.08D-04 NDo=     1
 LinEq1:  Iter=  2 NonCon=     1 RMS=1.62D-05 Max=3.09D-04 NDo=     1
 LinEq1:  Iter=  3 NonCon=     1 RMS=3.40D-05 Max=4.66D-04 NDo=     1
 LinEq1:  Iter=  4 NonCon=     1 RMS=3.24D-05 Max=4.44D-04 NDo=     1
 LinEq1:  Iter=  5 NonCon=     1 RMS=8.38D-06 Max=9.23D-05 NDo=     1
 LinEq1:  Iter=  6 NonCon=     1 RMS=2.59D-06 Max=3.33D-05 NDo=     1
 LinEq1:  Iter=  7 NonCon=     1 RMS=1.01D-06 Max=9.31D-06 NDo=     1
 LinEq1:  Iter=  8 NonCon=     1 RMS=2.19D-07 Max=2.23D-06 NDo=     1
 LinEq1:  Iter=  9 NonCon=     1 RMS=1.11D-07 Max=1.39D-06 NDo=     1
 LinEq1:  Iter= 10 NonCon=     1 RMS=4.63D-07 Max=4.10D-06 NDo=     1
 LinEq1:  Iter= 11 NonCon=     1 RMS=3.67D-07 Max=4.90D-06 NDo=     1
 LinEq1:  Iter= 12 NonCon=     1 RMS=1.58D-06 Max=1.39D-05 NDo=     1
 LinEq1:  Iter= 13 NonCon=     1 RMS=4.97D-07 Max=4.15D-06 NDo=     1
 LinEq1:  Iter= 14 NonCon=     1 RMS=1.04D-07 Max=9.64D-07 NDo=     1
 LinEq1:  Iter= 15 NonCon=     1 RMS=1.96D-08 Max=2.22D-07 NDo=     1
 LinEq1:  Iter= 16 NonCon=     1 RMS=3.49D-09 Max=4.22D-08 NDo=     1
 LinEq1:  Iter= 17 NonCon=     1 RMS=7.97D-10 Max=1.04D-08 NDo=     1
 LinEq1:  Iter= 18 NonCon=     1 RMS=1.69D-10 Max=1.95D-09 NDo=     1
 LinEq1:  Iter= 19 NonCon=     0 RMS=3.03D-11 Max=3.15D-10 NDo=     1
 Linear equations converged to 9.328D-11 9.328D-10 after    19 iterations.
 Angle between quadratic step and gradient=  81.64 degrees.
     ILin= 1 X=0.000D+00 Y=-4.675885733501D+02 DE= 0.00D+00 F= -1.83D-10
     ILin= 2 X=1.000D+00 Y=-4.675885733502D+02 DE=-9.24D-11
 Density matrix breaks symmetry, PCut= 1.00D-04
 Density has only Abelian symmetry.
 Iteration   3 EE= -467.588573350215     Delta-E=       -0.000000000092 Grad=4.305D-10 Max rot=    0.0000 deg.
 Rotation gradient small -- convergence achieved.
 Orbital symmetries in SymMO:
    1=4    2=1    3=3    4=1    5=1    6=3    7=1    8=4    9=1   10=4
   11=1   12=3   13=3   14=2   15=1   16=4   17=1   18=1   19=3   20=4
   21=1   22=2   23=2   24=4   25=3   26=3   27=1   28=4   29=1   30=3
   31=4   32=1   33=1   34=1   35=3   36=4   37=1   38=1   39=2   40=3
   41=1   42=4   43=3   44=4   45=2   46=1   47=3   48=4   49=1   50=2
   51=3   52=4   53=1   54=1   55=1   56=3   57=4   58=1
 SCF Done:  E(RPBE1PBE) =  -467.588573350     a.u. after    3 cycles
            Convg  =    0.4305D-09                    40 Fock formations.
              S**2 =  0.0000                  -V/T =  2.1583
 Density matrix breaks symmetry, PCut= 1.00D-04
 Density has only Abelian symmetry.
 Leave Link  508 at Sat Oct 18 11:59:40 2025, MaxMem=  4294967296 cpu:              19.9 elap:               2.5
 (Enter /opt/modules/software/gaussian/G16-C01/l601.exe)
 Copying SCF densities to generalized density rwf, IOpCl= 0 IROHF=0.
 SCF density gives NOpUse=  4 NOpAll=  8.
 Marking SCF density as not fully symmetric.

 **********************************************************************

            Population analysis using the SCF Density.

 **********************************************************************

 Orbital symmetries:
       Occupied  (E) (E) (E) (E) (A1) (E) (B2) (E) (E) (E) (E)
                 (E) (B2) (B1) (E) (B2) (E) (E) (B2) (B2) (E) (E)
                 (E) (B2) (B2) (B2) (E) (B2)
       Virtual   (E) (B2) (B2) (E) (E) (E) (E) (E) (E) (E) (B1)
                 (E) (E) (E) (E) (E) (A2) (B2) (E) (E) (E) (B1)
                 (E) (E) (E) (A1) (B2) (E) (E) (A1)
 Unable to determine electronic state:  partially filled degenerate orbitals.
 Alpha  occ. eigenvalues --  -18.33391 -18.33391 -18.32859 -18.32859  -3.27029
 Alpha  occ. eigenvalues --   -1.86660  -1.85778  -1.84411   0.00466   0.01256
 Alpha  occ. eigenvalues --    0.01369   0.01443   0.49844   0.50313   0.51482
 Alpha  occ. eigenvalues --    0.52053   0.53181   0.54929   0.59163   0.59218
 Alpha  occ. eigenvalues --    0.59524   0.62419   0.62709   0.62833   0.62867
 Alpha  occ. eigenvalues --    0.63799   0.63843   0.64662
 Alpha virt. eigenvalues --    0.68242   0.71777   0.72871   0.73506   0.88100
 Alpha virt. eigenvalues --    1.07292   1.07587   1.07867   1.28276   1.50054
 Alpha virt. eigenvalues --    1.50403   1.51438   1.51766   1.51864   1.63468
 Alpha virt. eigenvalues --    1.63545   1.63790   1.69881   1.70002   1.70014
 Alpha virt. eigenvalues --    1.79039   1.79207   1.89933   1.90355   1.90416
 Alpha virt. eigenvalues --    2.14664   2.45671   2.45781   2.45843   3.64558
          Condensed to atoms (all electrons):
               1          2          3          4          5
     1  Ni  20.552067   0.243179   0.267999   0.267999   0.243179
     2  O    0.243179   8.334177   0.006521   0.006521   0.005512
     3  O    0.267999   0.006521   8.331089   0.004750   0.006521
     4  O    0.267999   0.006521   0.004750   8.331089   0.006521
     5  O    0.243179   0.005512   0.006521   0.006521   8.334177
 Mulliken charges:
               1
     1  Ni  -3.574423
     2  O   -0.595909
     3  O   -0.616880
     4  O   -0.616880
     5  O   -0.595909
 Sum of Mulliken charges =  -6.00000
 Mulliken charges with hydrogens summed into heavy atoms:
               1
     1  Ni  -3.574423
     2  O   -0.595909
     3  O   -0.616880
     4  O   -0.616880
     5  O   -0.595909
 Electronic spatial extent (au):  <R**2>=            837.6202
 Charge=             -6.0000 electrons
 Dipole moment (field-independent basis, Debye):
    X=              0.0000    Y=             -0.0000    Z=             -0.4847  Tot=              0.4847
 Quadrupole moment (field-independent basis, Debye-Ang):
   XX=           -178.4330   YY=           -187.4319   ZZ=           -164.5610
   XY=              0.0000   XZ=              0.0000   YZ=             -0.0000
 Traceless Quadrupole moment (field-independent basis, Debye-Ang):
   XX=             -1.6243   YY=            -10.6233   ZZ=             12.2476
   XY=              0.0000   XZ=              0.0000   YZ=             -0.0000
 Octapole moment (field-independent basis, Debye-Ang**2):
  XXX=              0.0000  YYY=              0.0000  ZZZ=             -6.4543  XYY=              0.0000
  XXY=             -0.0000  XXZ=             15.9149  XZZ=              0.0000  YZZ=             -0.0000
  YYZ=            -15.6718  XYZ=             -0.0000
 Hexadecapole moment (field-independent basis, Debye-Ang**3):
 XXXX=          -1994.8956 YYYY=          -2191.0093 ZZZZ=          -1718.4221 XXXY=              0.0000
 XXXZ=              0.0000 YYYX=              0.0000 YYYZ=              0.0000 ZZZX=              0.0000
 ZZZY=             -0.0000 XXYY=           -690.5193 XXZZ=           -625.9462 YYZZ=           -661.6117
 XXYZ=              0.0000 YYXZ=              0.0000 ZZXY=              0.0000
 N-N= 2.179448976757D+02 E-N=-1.601632748530D+03  KE= 4.036888513806D+02
 Symmetry A1   KE= 1.800190192965D+02
 Symmetry A2   KE= 2.692388700865D+01
 Symmetry B1   KE= 9.950388523212D+01
 Symmetry B2   KE= 9.724205984330D+01
 No NMR shielding tensors so no spin-rotation constants.
 Leave Link  601 at Sat Oct 18 11:59:40 2025, MaxMem=  4294967296 cpu:               0.4 elap:               0.1
 (Enter /opt/modules/software/gaussian/G16-C01/l701.exe)
 ... and contract with generalized density number  0.
 Compute integral first derivatives.
 Density matrix has only Abelian symmetry.
   4 Symmetry operations used in ECPInt.
 ECPInt:  NShTT=     406 NPrTT=    3130 LenC2=     401 LenP2D=    2286.
 LDataN:  DoStor=T MaxTD1= 5 Len=  102
 Leave Link  701 at Sat Oct 18 11:59:40 2025, MaxMem=  4294967296 cpu:               1.7 elap:               0.2
 (Enter /opt/modules/software/gaussian/G16-C01/l702.exe)
 L702 exits ... SP integral derivatives will be done elsewhere.
 Leave Link  702 at Sat Oct 18 11:59:40 2025, MaxMem=  4294967296 cpu:               0.5 elap:               0.1
 (Enter /opt/modules/software/gaussian/G16-C01/l703.exe)
 Integral derivatives from FoFJK, PRISM(SPDF).
 Compute integral first derivatives, UseDBF=F ICtDFT=           0.
 Density matrix has only Abelian symmetry.
 Calling FoFJK, ICntrl=      2127 FMM=F ISym2X=1 I1Cent= 0 IOpClX= 0 NMat=1 NMatS=1 NMatT=0.
 FoFJK:  IHMeth= 1 ICntrl=    2127 DoSepK=F KAlg= 0 I1Cent=           0 FoldK=F
 IRaf=         0 NMat=       1 IRICut=       1 DoRegI=T DoRafI=F ISym2E= 1 IDoP0=0 IntGTp=1.
 FoFCou: FMM=F IPFlag=           0 FMFlag=      100000 FMFlg1=         800
         NFxFlg=           0 DoJE=F BraDBF=F KetDBF=F FulRan=T
         wScrn=  0.000000 ICntrl=      2127 IOpCl=  0 I1Cent=           0 NGrid=           0
         NMat0=    1 NMatS0=      1 NMatT0=    0 NMatD0=    1 NMtDS0=    0 NMtDT0=    0
 Petite list used in FoFCou.
 Leave Link  703 at Sat Oct 18 11:59:41 2025, MaxMem=  4294967296 cpu:               2.5 elap:               0.3
 (Enter /opt/modules/software/gaussian/G16-C01/l716.exe)
 Dipole        = 6.34637887D-17 0.00000000D+00-1.90703403D-01
 ***** Axes restored to original set *****
 -------------------------------------------------------------------
 Center     Atomic                   Forces (Hartrees/Bohr)
 Number     Number              X              Y              Z
 -------------------------------------------------------------------
      1       28          -0.000000009   -0.014912886   -0.010544994
      2        8           0.037385862   -0.022446378   -0.015871978
      3        8           0.000000012    0.054959930   -0.014291692
      4        8           0.000000023    0.004845688    0.056580613
      5        8          -0.037385888   -0.022446354   -0.015871949
 -------------------------------------------------------------------
 Cartesian Forces:  Max     0.056580613 RMS     0.027190940
 Leave Link  716 at Sat Oct 18 11:59:41 2025, MaxMem=  4294967296 cpu:               0.6 elap:               0.1
 (Enter /opt/modules/software/gaussian/G16-C01/l103.exe)

 GradGradGradGradGradGradGradGradGradGradGradGradGradGradGradGradGradGrad
 Berny optimization.
 FormGI is forming the generalized inverse of G from B-inverse, IUseBI=4.
 Internal  Forces:  Max     0.056580614 RMS     0.027860084
 Search for a local minimum.
 Step number   1 out of a maximum of  100
 All quantities printed in internal units (Hartrees-Bohrs-Radians)
 RMS Force = .27860D-01 SwitMx=.10000D-02 MixMth= 1
 Mixed Optimization -- RFO/linear search
 Second derivative matrix not updated -- first step.
 The second derivative matrix:
                          R1        R2        R3        R4        A1
           R1           0.15237
           R2           0.00000   0.15237
           R3           0.00000   0.00000   0.15237
           R4           0.00000   0.00000   0.00000   0.15237
           A1           0.00000   0.00000   0.00000   0.00000   0.25000
           A2           0.00000   0.00000   0.00000   0.00000   0.00000
           A3           0.00000   0.00000   0.00000   0.00000   0.00000
           A4           0.00000   0.00000   0.00000   0.00000   0.00000
           A5           0.00000   0.00000   0.00000   0.00000   0.00000
           A6           0.00000   0.00000   0.00000   0.00000   0.00000
           D1           0.00000   0.00000   0.00000   0.00000   0.00000
           D2           0.00000   0.00000   0.00000   0.00000   0.00000
           D3           0.00000   0.00000   0.00000   0.00000   0.00000
           D4           0.00000   0.00000   0.00000   0.00000   0.00000
                          A2        A3        A4        A5        A6
           A2           0.25000
           A3           0.00000   0.25000
           A4           0.00000   0.00000   0.25000
           A5           0.00000   0.00000   0.00000   0.25000
           A6           0.00000   0.00000   0.00000   0.00000   0.25000
           D1           0.00000   0.00000   0.00000   0.00000   0.00000
           D2           0.00000   0.00000   0.00000   0.00000   0.00000
           D3           0.00000   0.00000   0.00000   0.00000   0.00000
           D4           0.00000   0.00000   0.00000   0.00000   0.00000
                          D1        D2        D3        D4
           D1           0.02495
           D2           0.00000   0.02495
           D3           0.00000   0.00000   0.02495
           D4           0.00000   0.00000   0.00000   0.02495
 ITU=  0
     Eigenvalues ---    0.09420   0.10323   0.14498   0.15237   0.15237
     Eigenvalues ---    0.15237   0.15237   0.25000   0.25000
 RFO step:  Lambda=-5.28717795D-02 EMin= 9.41951947D-02
 Linear search not attempted -- first point.
 Maximum step size (   0.300) exceeded in Quadratic search.
    -- Step size scaled by   0.593
 Iteration  1 RMS(Cart)=  0.08067661 RMS(Int)=  0.00042911
 Iteration  2 RMS(Cart)=  0.00063846 RMS(Int)=  0.00000807
 Iteration  3 RMS(Cart)=  0.00000016 RMS(Int)=  0.00000807
 ITry= 1 IFail=0 DXMaxC= 1.53D-01 DCOld= 1.00D+10 DXMaxT= 3.00D-01 DXLimC= 3.00D+00 Rises=F
 Variable       Old X    -DE/DX   Delta X   Delta X   Delta X     New X
                                 (Linear)    (Quad)   (Total)
    R1        3.72182  -0.04640   0.00000  -0.13400  -0.13400   3.58782
    R2        3.72182  -0.05658   0.00000  -0.16341  -0.16341   3.55841
    R3        3.72182  -0.05658   0.00000  -0.16341  -0.16341   3.55841
    R4        3.72182  -0.04640   0.00000  -0.13400  -0.13400   3.58782
    A1        1.91063  -0.00186   0.00000  -0.00503  -0.00505   1.90559
    A2        1.91063  -0.00129   0.00000  -0.00446  -0.00448   1.90616
    A3        1.91063   0.00342   0.00000   0.00268   0.00267   1.91331
    A4        1.91063   0.00818   0.00000   0.02247   0.02248   1.93311
    A5        1.91063  -0.00407   0.00000  -0.00778  -0.00777   1.90286
    A6        1.91063  -0.00438   0.00000  -0.00788  -0.00788   1.90276
    D1       -2.09440  -0.00194   0.00000  -0.00487  -0.00488  -2.09927
    D2        2.09440  -0.00267   0.00000  -0.00928  -0.00928   2.08512
    D3       -2.09440   0.00216   0.00000   0.00865   0.00864  -2.08575
    D4        2.09440   0.00484   0.00000   0.01793   0.01792   2.11232
         Item               Value     Threshold  Converged?
 Maximum Force            0.056581     0.000450     NO 
 RMS     Force            0.027860     0.000300     NO 
 Maximum Displacement     0.152889     0.001800     NO 
 RMS     Displacement     0.080648     0.001200     NO 
 Predicted change in Energy=-2.444378D-02
 Lowest energy point so far.  Saving SCF results.
 GradGradGradGradGradGradGradGradGradGradGradGradGradGradGradGradGradGrad

 Leave Link  103 at Sat Oct 18 11:59:41 2025, MaxMem=  4294967296 cpu:               0.1 elap:               0.0
 (Enter /opt/modules/software/gaussian/G16-C01/l202.exe)
                          Input orientation:                          
 ---------------------------------------------------------------------
 Center     Atomic      Atomic             Coordinates (Angstroms)
 Number     Number       Type             X           Y           Z
 ---------------------------------------------------------------------
      1         28           0        1.497729   -0.873354    3.054278
      2          8           0       -0.053091    0.020712    3.686937
      3          8           0        1.500062   -2.641484    3.701972
      4          8           0        1.500427   -0.852302    1.171369
      5          8           0        3.050224    0.018983    3.685266
 ---------------------------------------------------------------------
                    Distance matrix (angstroms):
                    1          2          3          4          5
     1  Ni   0.000000
     2  O    1.898592   0.000000
     3  O    1.883029   3.082174   0.000000
     4  O    1.883029   3.082800   3.099214   0.000000
     5  O    1.898592   3.103316   3.079183   3.079073   0.000000
 Stoichiometry    NiO4(6-)
 Framework group  C1[X(NiO4)]
 Deg. of freedom     9
 Full point group                 C1      NOp   1
 Omega: Change in point group or standard orientation.

 Old FWG=D02D [O(Ni1),2SGD(O2)]
 New FWG=C01  [X(Ni1O4)]
 RotChk:  IX=3 Diff= 1.91D+00
 Largest Abelian subgroup         C1      NOp   1
 Largest concise Abelian subgroup C1      NOp   1
                         Standard orientation:                         
 ---------------------------------------------------------------------
 Center     Atomic      Atomic             Coordinates (Angstroms)
 Number     Number       Type             X           Y           Z
 ---------------------------------------------------------------------
      1         28           0       -0.000529    0.000142   -0.006508
      2          8           0       -1.603089    0.136442    1.002390
      3          8           0       -0.075328   -1.544445   -1.080964
      4          8           0        0.196484    1.542800   -1.068201
      5          8           0        1.483784   -0.135294    1.169554
 ---------------------------------------------------------------------
 Rotational constants (GHZ):           3.3312506           3.3265762           3.2850283
 Leave Link  202 at Sat Oct 18 11:59:41 2025, MaxMem=  4294967296 cpu:               0.0 elap:               0.0
 (Enter /opt/modules/software/gaussian/G16-C01/l301.exe)
 Basis read from rwf:  (5D, 7F)
 Pseudo-potential data read from rwf file.
 There are    60 symmetry adapted cartesian basis functions of A   symmetry.
 There are    58 symmetry adapted basis functions of A   symmetry.
    58 basis functions,   152 primitive gaussians,    60 cartesian basis functions
    28 alpha electrons       28 beta electrons
       nuclear repulsion energy       227.0196965053 Hartrees.
 IExCor= 1009 DFT=T Ex+Corr=PBE1PBE ExCW=0 ScaHFX=  0.250000
 ScaDFX=  0.750000  0.750000  1.000000  1.000000 ScalE2=  1.000000  1.000000
 IRadAn=      5 IRanWt=     -1 IRanGd=            0 ICorTp=0 IEmpDi=  4
 NAtoms=    5 NActive=    5 NUniq=    5 SFac= 1.00D+00 NAtFMM=   60 NAOKFM=F Big=F
 Integral buffers will be    131072 words long.
 Raffenetti 2 integral format.
 Two-electron integral symmetry is turned on.
 No density basis found on file    724.
 Leave Link  301 at Sat Oct 18 11:59:41 2025, MaxMem=  4294967296 cpu:               0.3 elap:               0.0
 (Enter /opt/modules/software/gaussian/G16-C01/l302.exe)
 NPDir=0 NMtPBC=     1 NCelOv=     1 NCel=       1 NClECP=     1 NCelD=      1
         NCelK=      1 NCelE2=     1 NClLst=     1 CellRange=     0.0.
 One-electron integrals computed using PRISM.
 One-electron integral symmetry used in STVInt
   1 Symmetry operations used in ECPInt.
 ECPInt:  NShTT=     406 NPrTT=    3130 LenC2=     401 LenP2D=    2294.
 LDataN:  DoStor=T MaxTD1= 4 Len=   56
 NBasis=    58 RedAO= T EigKep=  3.75D-02  NBF=    58
 NBsUse=    58 1.00D-06 EigRej= -1.00D+00 NBFU=    58
 Precomputing XC quadrature grid using
 IXCGrd= 4 IRadAn=           5 IRanWt=          -1 IRanGd=           0 AccXCQ= 0.00D+00.
 Generated NRdTot=       0 NPtTot=           0 NUsed=           0 NTot=          32
 NSgBfM=    60    60    60    60    60 MxSgAt=     5 MxSgA2=     5.
 Leave Link  302 at Sat Oct 18 11:59:41 2025, MaxMem=  4294967296 cpu:               0.6 elap:               0.1
 (Enter /opt/modules/software/gaussian/G16-C01/l303.exe)
 DipDrv:  MaxL=1.
 Leave Link  303 at Sat Oct 18 11:59:41 2025, MaxMem=  4294967296 cpu:               0.1 elap:               0.0
 (Enter /opt/modules/software/gaussian/G16-C01/l401.exe)
 Initial guess from the checkpoint file:  "nio4.chk"
 B after Tr=     0.000000   -0.000000   -0.000000
         Rot=    0.737184    0.018742    0.019993   -0.675136 Ang=  85.02 deg.
 Guess basis will be translated and rotated to current coordinates.
 JPrj=2 DoOrth=T DoCkMO=T.
 Generating alternative initial guess.
 ExpMin= 2.40D-02 ExpMax= 7.82D+03 ExpMxC= 2.73D+02 IAcc=3 IRadAn=         5 AccDes= 0.00D+00
 Harris functional with IExCor= 1009 and IRadAn=       5 diagonalized for initial guess.
 HarFok:  IExCor= 1009 AccDes= 0.00D+00 IRadAn=         5 IDoV= 1 UseB2=F ITyADJ=14
 ICtDFT=  3500011 ScaDFX=  1.000000  1.000000  1.000000  1.000000
 FoFCou: FMM=F IPFlag=           0 FMFlag=      100000 FMFlg1=           0
         NFxFlg=           0 DoJE=T BraDBF=F KetDBF=T FulRan=T
         wScrn=  0.000000 ICntrl=       500 IOpCl=  0 I1Cent=   200000004 NGrid=           0
         NMat0=    1 NMatS0=      1 NMatT0=    0 NMatD0=    1 NMtDS0=    0 NMtDT0=    0
 Petite list used in FoFCou.
 Harris En= -471.418137971008    
 Leave Link  401 at Sat Oct 18 11:59:41 2025, MaxMem=  4294967296 cpu:               1.0 elap:               0.1
 (Enter /opt/modules/software/gaussian/G16-C01/l502.exe)
 Keep R1 ints in memory in canonical form, NReq=8545930.
 FoFCou: FMM=F IPFlag=           0 FMFlag=           0 FMFlg1=           0
         NFxFlg=           0 DoJE=F BraDBF=F KetDBF=F FulRan=T
         wScrn=  0.000000 ICntrl=       600 IOpCl=  0 I1Cent=           0 NGrid=           0
         NMat0=    1 NMatS0=   1711 NMatT0=    0 NMatD0=    1 NMtDS0=    0 NMtDT0=    0
 Symmetry not used in FoFCou.
 Two-electron integral symmetry not used.
 Closed shell SCF:
 Using DIIS extrapolation, IDIIS=  1040.
 NGot=  4294967296 LenX=  4293494118 LenY=  4293490077
 Requested convergence on RMS density matrix=1.00D-08 within  20 cycles.
 Requested convergence on MAX density matrix=1.00D-06.
 Requested convergence on             energy=1.00D-06.
 No special actions if energy rises.

 Cycle   1  Pass 1  IDiag  1:
 E= -467.614569557737    
 DIIS: error= 8.26D-03 at cycle   1 NSaved=   1.
 NSaved= 1 IEnMin= 1 EnMin= -467.614569557737     IErMin= 1 ErrMin= 8.26D-03
 ErrMax= 8.26D-03  0.00D+00 EMaxC= 1.00D-01 BMatC= 1.97D-03 BMatP= 1.97D-03
 IDIUse=3 WtCom= 9.17D-01 WtEn= 8.26D-02
 Coeff-Com:  0.100D+01
 Coeff-En:   0.100D+01
 Coeff:      0.100D+01
 Gap=     0.416 Goal=   None    Shift=    0.000
 GapD=    0.416 DampG=2.000 DampE=1.000 DampFc=2.0000 IDamp=-1.
 RMSDP=8.76D-03 MaxDP=1.88D-01              OVMax= 2.42D-02

 Cycle   2  Pass 1  IDiag  1:
 E= -467.570319633706     Delta-E=        0.044249924031 Rises=F Damp=F
 DIIS: error= 3.66D-02 at cycle   2 NSaved=   2.
 NSaved= 2 IEnMin= 1 EnMin= -467.614569557737     IErMin= 1 ErrMin= 8.26D-03
 ErrMax= 3.66D-02  0.00D+00 EMaxC= 1.00D-01 BMatC= 6.45D-02 BMatP= 1.97D-03
 IDIUse=2 WtCom= 0.00D+00 WtEn= 1.00D+00
 Coeff-En:   0.927D+00 0.727D-01
 Coeff:      0.927D+00 0.727D-01
 Gap=     0.035 Goal=   None    Shift=    0.000
 RMSDP=4.73D-03 MaxDP=1.27D-01 DE= 4.42D-02 OVMax= 6.57D-02

 Cycle   3  Pass 1  IDiag  1:
 E= -467.617243822682     Delta-E=       -0.046924188976 Rises=F Damp=F
 DIIS: error= 2.42D-03 at cycle   3 NSaved=   3.
 NSaved= 3 IEnMin= 3 EnMin= -467.617243822682     IErMin= 3 ErrMin= 2.42D-03
 ErrMax= 2.42D-03  0.00D+00 EMaxC= 1.00D-01 BMatC= 4.29D-04 BMatP= 1.97D-03
 IDIUse=3 WtCom= 9.76D-01 WtEn= 2.42D-02
 Coeff-Com:  0.404D-01-0.654D-01 0.102D+01
 Coeff-En:   0.000D+00 0.000D+00 0.100D+01
 Coeff:      0.394D-01-0.638D-01 0.102D+01
 Gap=     0.030 Goal=   None    Shift=    0.000
 RMSDP=5.34D-03 MaxDP=1.64D-01 DE=-4.69D-02 OVMax= 9.66D-02

 Cycle   4  Pass 1  IDiag  1:
 E= -467.609777092858     Delta-E=        0.007466729824 Rises=F Damp=F
 DIIS: error= 8.77D-03 at cycle   4 NSaved=   4.
 NSaved= 4 IEnMin= 3 EnMin= -467.617243822682     IErMin= 3 ErrMin= 2.42D-03
 ErrMax= 8.77D-03  0.00D+00 EMaxC= 1.00D-01 BMatC= 6.85D-03 BMatP= 4.29D-04
 IDIUse=3 WtCom= 9.65D-02 WtEn= 9.04D-01
 Coeff-Com:  0.250D-01-0.150D-01 0.829D+00 0.161D+00
 Coeff-En:   0.000D+00 0.000D+00 0.818D+00 0.182D+00
 Coeff:      0.242D-02-0.145D-02 0.819D+00 0.180D+00
 Gap=     0.033 Goal=   None    Shift=    0.000
 RMSDP=2.65D-03 MaxDP=7.21D-02 DE= 7.47D-03 OVMax= 4.25D-02

 Cycle   5  Pass 1  IDiag  1:
 E= -467.616091640478     Delta-E=       -0.006314547620 Rises=F Damp=F
 DIIS: error= 5.99D-03 at cycle   5 NSaved=   5.
 NSaved= 5 IEnMin= 3 EnMin= -467.617243822682     IErMin= 3 ErrMin= 2.42D-03
 ErrMax= 5.99D-03  0.00D+00 EMaxC= 1.00D-01 BMatC= 2.52D-03 BMatP= 4.29D-04
 IDIUse=3 WtCom= 1.14D-01 WtEn= 8.86D-01
 Coeff-Com:  0.442D-02 0.104D+00 0.275D+00 0.260D-01 0.590D+00
 Coeff-En:   0.000D+00 0.000D+00 0.639D+00 0.000D+00 0.361D+00
 Coeff:      0.506D-03 0.119D-01 0.598D+00 0.297D-02 0.387D+00
 Gap=     0.032 Goal=   None    Shift=    0.000
 RMSDP=1.27D-03 MaxDP=2.24D-02 DE=-6.31D-03 OVMax= 1.50D-02

 Cycle   6  Pass 1  IDiag  1:
 E= -467.616165965497     Delta-E=       -0.000074325019 Rises=F Damp=F
 DIIS: error= 6.64D-03 at cycle   6 NSaved=   6.
 NSaved= 6 IEnMin= 3 EnMin= -467.617243822682     IErMin= 3 ErrMin= 2.42D-03
 ErrMax= 6.64D-03  0.00D+00 EMaxC= 1.00D-01 BMatC= 2.87D-03 BMatP= 4.29D-04
 IDIUse=3 WtCom= 1.14D-01 WtEn= 8.86D-01
 EnCoef did     9 forward-backward iterations
 Coeff-Com: -0.552D-02 0.328D-01 0.139D+00-0.163D+00 0.692D+00 0.304D+00
 Coeff-En:   0.000D+00 0.000D+00 0.436D+00 0.000D+00 0.363D+00 0.201D+00
 Coeff:     -0.631D-03 0.376D-02 0.402D+00-0.187D-01 0.401D+00 0.213D+00
 Gap=     0.033 Goal=   None    Shift=    0.000
 RMSDP=9.77D-04 MaxDP=2.37D-02 DE=-7.43D-05 OVMax= 1.35D-02

 Cycle   7  Pass 1  IDiag  1:
 E= -467.618007665896     Delta-E=       -0.001841700399 Rises=F Damp=F
 DIIS: error= 1.62D-03 at cycle   7 NSaved=   7.
 NSaved= 7 IEnMin= 7 EnMin= -467.618007665896     IErMin= 7 ErrMin= 1.62D-03
 ErrMax= 1.62D-03  0.00D+00 EMaxC= 1.00D-01 BMatC= 1.86D-04 BMatP= 4.29D-04
 IDIUse=3 WtCom= 9.84D-01 WtEn= 1.62D-02
 Coeff-Com: -0.579D-02 0.693D-03 0.131D+00-0.146D+00 0.545D+00 0.307D+00
 Coeff-Com:  0.168D+00
 Coeff-En:   0.000D+00 0.000D+00 0.000D+00 0.000D+00 0.156D+00 0.000D+00
 Coeff-En:   0.844D+00
 Coeff:     -0.570D-02 0.682D-03 0.129D+00-0.144D+00 0.539D+00 0.302D+00
 Coeff:      0.179D+00
 Gap=     0.033 Goal=   None    Shift=    0.000
 RMSDP=4.32D-04 MaxDP=1.46D-02 DE=-1.84D-03 OVMax= 9.84D-03

 Cycle   8  Pass 1  IDiag  1:
 E= -467.618188328663     Delta-E=       -0.000180662767 Rises=F Damp=F
 DIIS: error= 5.09D-04 at cycle   8 NSaved=   8.
 NSaved= 8 IEnMin= 8 EnMin= -467.618188328663     IErMin= 8 ErrMin= 5.09D-04
 ErrMax= 5.09D-04  0.00D+00 EMaxC= 1.00D-01 BMatC= 1.01D-05 BMatP= 1.86D-04
 IDIUse=3 WtCom= 9.95D-01 WtEn= 5.09D-03
 Coeff-Com: -0.444D-02-0.153D-02 0.801D-01-0.114D+00 0.409D+00 0.228D+00
 Coeff-Com:  0.136D+00 0.267D+00
 Coeff-En:   0.000D+00 0.000D+00 0.000D+00 0.000D+00 0.000D+00 0.000D+00
 Coeff-En:   0.000D+00 0.100D+01
 Coeff:     -0.442D-02-0.153D-02 0.797D-01-0.114D+00 0.407D+00 0.227D+00
 Coeff:      0.135D+00 0.271D+00
 Gap=     0.033 Goal=   None    Shift=    0.000
 RMSDP=1.53D-04 MaxDP=2.88D-03 DE=-1.81D-04 OVMax= 2.37D-03

 Cycle   9  Pass 1  IDiag  1:
 E= -467.618196983226     Delta-E=       -0.000008654564 Rises=F Damp=F
 DIIS: error= 4.39D-04 at cycle   9 NSaved=   9.
 NSaved= 9 IEnMin= 9 EnMin= -467.618196983226     IErMin= 9 ErrMin= 4.39D-04
 ErrMax= 4.39D-04  0.00D+00 EMaxC= 1.00D-01 BMatC= 1.40D-05 BMatP= 1.01D-05
 IDIUse=3 WtCom= 9.95D-01 WtEn= 5.09D-03
 Coeff-Com:  0.352D-02 0.181D-02-0.159D+00 0.576D-01-0.282D+00-0.213D+00
 Coeff-Com: -0.235D+00 0.102D+01 0.805D+00
 Coeff-En:   0.000D+00 0.000D+00 0.000D+00 0.000D+00 0.000D+00 0.000D+00
 Coeff-En:   0.000D+00 0.257D+00 0.743D+00
 Coeff:      0.350D-02 0.180D-02-0.158D+00 0.573D-01-0.280D+00-0.211D+00
 Coeff:     -0.234D+00 0.102D+01 0.805D+00
 Gap=     0.032 Goal=   None    Shift=    0.000
 RMSDP=9.23D-04 MaxDP=2.91D-02 DE=-8.65D-06 OVMax= 2.08D-02

 Cycle  10  Pass 1  IDiag  1:
 E= -467.618272065690     Delta-E=       -0.000075082464 Rises=F Damp=F
 DIIS: error= 2.67D-04 at cycle  10 NSaved=  10.
 NSaved=10 IEnMin=10 EnMin= -467.618272065690     IErMin=10 ErrMin= 2.67D-04
 ErrMax= 2.67D-04  0.00D+00 EMaxC= 1.00D-01 BMatC= 6.44D-06 BMatP= 1.01D-05
 IDIUse=3 WtCom= 9.97D-01 WtEn= 2.67D-03
 Coeff-Com:  0.142D-02 0.214D-02 0.355D-01-0.106D+00 0.119D+00 0.107D+00
 Coeff-Com: -0.242D+00-0.764D+00 0.106D+00 0.174D+01
 Coeff-En:   0.000D+00 0.000D+00 0.000D+00 0.000D+00 0.000D+00 0.000D+00
 Coeff-En:   0.000D+00 0.000D+00 0.000D+00 0.100D+01
 Coeff:      0.141D-02 0.213D-02 0.354D-01-0.106D+00 0.118D+00 0.107D+00
 Coeff:     -0.242D+00-0.762D+00 0.106D+00 0.174D+01
 Gap=     0.031 Goal=   None    Shift=    0.000
 RMSDP=9.86D-04 MaxDP=2.69D-02 DE=-7.51D-05 OVMax= 2.06D-02

 Cycle  11  Pass 1  IDiag  1:
 E= -467.618323444722     Delta-E=       -0.000051379032 Rises=F Damp=F
 DIIS: error= 1.69D-04 at cycle  11 NSaved=  11.
 NSaved=11 IEnMin=11 EnMin= -467.618323444722     IErMin=11 ErrMin= 1.69D-04
 ErrMax= 1.69D-04  0.00D+00 EMaxC= 1.00D-01 BMatC= 4.46D-06 BMatP= 6.44D-06
 IDIUse=3 WtCom= 9.98D-01 WtEn= 1.69D-03
 Coeff-Com:  0.100D-02 0.178D-02 0.503D-01-0.111D+00 0.146D+00 0.122D+00
 Coeff-Com: -0.214D+00-0.824D+00 0.314D-01 0.163D+01 0.164D+00
 Coeff-En:   0.000D+00 0.000D+00 0.000D+00 0.000D+00 0.000D+00 0.000D+00
 Coeff-En:   0.000D+00 0.000D+00 0.000D+00 0.000D+00 0.100D+01
 Coeff:      0.100D-02 0.178D-02 0.502D-01-0.111D+00 0.146D+00 0.122D+00
 Coeff:     -0.213D+00-0.822D+00 0.313D-01 0.163D+01 0.165D+00
 Gap=     0.031 Goal=   None    Shift=    0.000
 RMSDP=1.43D-04 MaxDP=3.90D-03 DE=-5.14D-05 OVMax= 2.97D-03

 Cycle  12  Pass 1  IDiag  1:
 E= -467.618329999351     Delta-E=       -0.000006554629 Rises=F Damp=F
 DIIS: error= 1.61D-04 at cycle  12 NSaved=  12.
 NSaved=12 IEnMin=12 EnMin= -467.618329999351     IErMin=12 ErrMin= 1.61D-04
 ErrMax= 1.61D-04  0.00D+00 EMaxC= 1.00D-01 BMatC= 2.64D-06 BMatP= 4.46D-06
 IDIUse=3 WtCom= 9.98D-01 WtEn= 1.61D-03
 Coeff-Com: -0.150D-02-0.298D-02 0.403D-01-0.164D-01 0.871D-01 0.746D-02
 Coeff-Com:  0.974D-01 0.607D-01-0.162D+00-0.985D+00 0.521D+00 0.135D+01
 Coeff-En:   0.000D+00 0.000D+00 0.000D+00 0.000D+00 0.000D+00 0.000D+00
 Coeff-En:   0.000D+00 0.000D+00 0.000D+00 0.000D+00 0.000D+00 0.100D+01
 Coeff:     -0.150D-02-0.297D-02 0.403D-01-0.163D-01 0.870D-01 0.745D-02
 Coeff:      0.972D-01 0.606D-01-0.161D+00-0.984D+00 0.520D+00 0.135D+01
 Gap=     0.031 Goal=   None    Shift=    0.000
 RMSDP=7.66D-04 MaxDP=2.17D-02 DE=-6.55D-06 OVMax= 1.63D-02

 Cycle  13  Pass 1  IDiag  1:
 E= -467.618349275677     Delta-E=       -0.000019276326 Rises=F Damp=F
 DIIS: error= 8.54D-05 at cycle  13 NSaved=  13.
 NSaved=13 IEnMin=13 EnMin= -467.618349275677     IErMin=13 ErrMin= 8.54D-05
 ErrMax= 8.54D-05  0.00D+00 EMaxC= 1.00D-01 BMatC= 5.28D-07 BMatP= 2.64D-06
 IDIUse=1 WtCom= 1.00D+00 WtEn= 0.00D+00
 Coeff-Com:  0.563D-03 0.848D-03-0.259D-01 0.134D-02-0.201D-01-0.167D-01
 Coeff-Com: -0.696D-01 0.135D+00 0.188D+00-0.262D+00-0.162D+00-0.278D+00
 Coeff-Com:  0.151D+01
 Coeff:      0.563D-03 0.848D-03-0.259D-01 0.134D-02-0.201D-01-0.167D-01
 Coeff:     -0.696D-01 0.135D+00 0.188D+00-0.262D+00-0.162D+00-0.278D+00
 Coeff:      0.151D+01
 Gap=     0.030 Goal=   None    Shift=    0.000
 RMSDP=4.03D-04 MaxDP=1.12D-02 DE=-1.93D-05 OVMax= 8.54D-03

 Cycle  14  Pass 1  IDiag  1:
 E= -467.618352986129     Delta-E=       -0.000003710453 Rises=F Damp=F
 DIIS: error= 1.93D-05 at cycle  14 NSaved=  14.
 NSaved=14 IEnMin=14 EnMin= -467.618352986129     IErMin=14 ErrMin= 1.93D-05
 ErrMax= 1.93D-05  0.00D+00 EMaxC= 1.00D-01 BMatC= 4.92D-08 BMatP= 5.28D-07
 IDIUse=1 WtCom= 1.00D+00 WtEn= 0.00D+00
 Coeff-Com:  0.161D-03 0.197D-04-0.253D-02 0.249D-02-0.156D-01-0.331D-02
 Coeff-Com:  0.364D-02-0.159D-01-0.174D-01 0.202D+00-0.813D-01-0.213D+00
 Coeff-Com:  0.465D-02 0.114D+01
 Coeff:      0.161D-03 0.197D-04-0.253D-02 0.249D-02-0.156D-01-0.331D-02
 Coeff:      0.364D-02-0.159D-01-0.174D-01 0.202D+00-0.813D-01-0.213D+00
 Coeff:      0.465D-02 0.114D+01
 Gap=     0.030 Goal=   None    Shift=    0.000
 RMSDP=6.75D-05 MaxDP=2.00D-03 DE=-3.71D-06 OVMax= 1.42D-03

 Cycle  15  Pass 1  IDiag  1:
 E= -467.618353166583     Delta-E=       -0.000000180453 Rises=F Damp=F
 DIIS: error= 5.50D-06 at cycle  15 NSaved=  15.
 NSaved=15 IEnMin=15 EnMin= -467.618353166583     IErMin=15 ErrMin= 5.50D-06
 ErrMax= 5.50D-06  0.00D+00 EMaxC= 1.00D-01 BMatC= 2.74D-09 BMatP= 4.92D-08
 IDIUse=1 WtCom= 1.00D+00 WtEn= 0.00D+00
 Coeff-Com: -0.438D-04-0.526D-04 0.172D-02-0.121D-02 0.413D-02 0.222D-02
 Coeff-Com:  0.296D-02-0.524D-02-0.650D-02-0.129D-01 0.188D-01 0.426D-01
 Coeff-Com: -0.126D+00-0.221D+00 0.130D+01
 Coeff:     -0.438D-04-0.526D-04 0.172D-02-0.121D-02 0.413D-02 0.222D-02
 Coeff:      0.296D-02-0.524D-02-0.650D-02-0.129D-01 0.188D-01 0.426D-01
 Coeff:     -0.126D+00-0.221D+00 0.130D+01
 Gap=     0.030 Goal=   None    Shift=    0.000
 RMSDP=3.15D-05 MaxDP=7.38D-04 DE=-1.80D-07 OVMax= 5.22D-04

 Cycle  16  Pass 1  IDiag  1:
 E= -467.618353196910     Delta-E=       -0.000000030327 Rises=F Damp=F
 DIIS: error= 2.36D-06 at cycle  16 NSaved=  16.
 NSaved=16 IEnMin=16 EnMin= -467.618353196910     IErMin=16 ErrMin= 2.36D-06
 ErrMax= 2.36D-06  0.00D+00 EMaxC= 1.00D-01 BMatC= 7.01D-10 BMatP= 2.74D-09
 IDIUse=1 WtCom= 1.00D+00 WtEn= 0.00D+00
 Coeff-Com: -0.421D-05-0.968D-05 0.163D-03 0.181D-04 0.429D-03 0.184D-03
 Coeff-Com: -0.434D-03-0.244D-02 0.338D-03 0.233D-02 0.162D-02 0.503D-02
 Coeff-Com: -0.119D-01-0.125D-01-0.658D-01 0.108D+01
 Coeff:     -0.421D-05-0.968D-05 0.163D-03 0.181D-04 0.429D-03 0.184D-03
 Coeff:     -0.434D-03-0.244D-02 0.338D-03 0.233D-02 0.162D-02 0.503D-02
 Coeff:     -0.119D-01-0.125D-01-0.658D-01 0.108D+01
 Gap=     0.030 Goal=   None    Shift=    0.000
 RMSDP=1.39D-05 MaxDP=3.42D-04 DE=-3.03D-08 OVMax= 3.03D-04

 Cycle  17  Pass 1  IDiag  1:
 E= -467.618353210334     Delta-E=       -0.000000013425 Rises=F Damp=F
 DIIS: error= 1.74D-06 at cycle  17 NSaved=  17.
 NSaved=17 IEnMin=17 EnMin= -467.618353210334     IErMin=17 ErrMin= 1.74D-06
 ErrMax= 1.74D-06  0.00D+00 EMaxC= 1.00D-01 BMatC= 2.21D-10 BMatP= 7.01D-10
 IDIUse=1 WtCom= 1.00D+00 WtEn= 0.00D+00
 Coeff-Com: -0.404D-05-0.876D-05 0.166D-03-0.698D-04 0.487D-03 0.230D-03
 Coeff-Com: -0.284D-03-0.195D-02 0.270D-03 0.953D-03 0.130D-02 0.467D-02
 Coeff-Com: -0.911D-02-0.142D-01-0.225D-01 0.677D+00 0.363D+00
 Coeff:     -0.404D-05-0.876D-05 0.166D-03-0.698D-04 0.487D-03 0.230D-03
 Coeff:     -0.284D-03-0.195D-02 0.270D-03 0.953D-03 0.130D-02 0.467D-02
 Coeff:     -0.911D-02-0.142D-01-0.225D-01 0.677D+00 0.363D+00
 Gap=     0.030 Goal=   None    Shift=    0.000
 RMSDP=4.36D-06 MaxDP=1.09D-04 DE=-1.34D-08 OVMax= 9.59D-05

 Cycle  18  Pass 1  IDiag  1:
 E= -467.618353214437     Delta-E=       -0.000000004103 Rises=F Damp=F
 DIIS: error= 1.74D-06 at cycle  18 NSaved=  18.
 NSaved=18 IEnMin=18 EnMin= -467.618353214437     IErMin=17 ErrMin= 1.74D-06
 ErrMax= 1.74D-06  0.00D+00 EMaxC= 1.00D-01 BMatC= 2.23D-10 BMatP= 2.21D-10
 IDIUse=1 WtCom= 1.00D+00 WtEn= 0.00D+00
 Large coefficients: NSaved= 18 BigCof=   31.45 CofMax=   10.00 Det=-2.91D-14
 Inversion failed.  Reducing to 17 matrices.
 Large coefficients: NSaved= 17 BigCof=   31.41 CofMax=   10.00 Det=-2.92D-14
 Inversion failed.  Reducing to 16 matrices.
 Large coefficients: NSaved= 16 BigCof=   31.39 CofMax=   10.00 Det=-2.92D-14
 Inversion failed.  Reducing to 15 matrices.
 Large coefficients: NSaved= 15 BigCof=   30.07 CofMax=   10.00 Det=-3.06D-14
 Inversion failed.  Reducing to 14 matrices.
 Large coefficients: NSaved= 14 BigCof=   26.96 CofMax=   10.00 Det=-3.59D-14
 Inversion failed.  Reducing to 13 matrices.
 Large coefficients: NSaved= 13 BigCof=   19.47 CofMax=   10.00 Det=-5.24D-14
 Inversion failed.  Reducing to 12 matrices.
 Large coefficients: NSaved= 12 BigCof=   19.47 CofMax=   10.00 Det=-5.24D-14
 Inversion failed.  Reducing to 11 matrices.
 Large coefficients: NSaved= 11 BigCof=   19.69 CofMax=   10.00 Det=-5.30D-14
 Inversion failed.  Reducing to 10 matrices.
 Large coefficients: NSaved= 10 BigCof=   19.52 CofMax=   10.00 Det=-5.30D-14
 Inversion failed.  Reducing to  9 matrices.
 Coeff-Com:  0.131D-02-0.214D-02-0.275D-02 0.713D-02 0.271D-01-0.127D+00
 Coeff-Com:  0.170D+00 0.624D+01-0.531D+01
 Coeff:      0.131D-02-0.214D-02-0.275D-02 0.713D-02 0.271D-01-0.127D+00
 Coeff:      0.170D+00 0.624D+01-0.531D+01
 Gap=     0.030 Goal=   None    Shift=    0.000
 RMSDP=1.54D-05 MaxDP=3.83D-04 DE=-4.10D-09 OVMax= 3.36D-04

 Cycle  19  Pass 1  IDiag  1:
 E= -467.618353199518     Delta-E=        0.000000014919 Rises=F Damp=F
 DIIS: error= 2.71D-06 at cycle  19 NSaved=  10.
 NSaved=10 IEnMin= 9 EnMin= -467.618353214437     IErMin= 8 ErrMin= 1.74D-06
 ErrMax= 2.71D-06  0.00D+00 EMaxC= 1.00D-01 BMatC= 7.52D-10 BMatP= 2.21D-10
 IDIUse=1 WtCom= 1.00D+00 WtEn= 0.00D+00
 Large coefficients: NSaved= 10 BigCof=   19.75 CofMax=   10.00 Det=-5.74D-14
 Inversion failed.  Reducing to  9 matrices.
 Large coefficients: NSaved=  9 BigCof=   19.23 CofMax=   10.00 Det=-5.80D-14
 Inversion failed.  Reducing to  8 matrices.
 Large coefficients: NSaved=  8 BigCof=   12.80 CofMax=   10.00 Det=-8.85D-14
 Inversion failed.  Reducing to  7 matrices.
 Large coefficients: NSaved=  7 BigCof=   13.17 CofMax=   10.00 Det=-9.22D-14
 Inversion failed.  Reducing to  6 matrices.
 Large coefficients: NSaved=  6 BigCof=   13.65 CofMax=   10.00 Det=-1.00D-13
 Inversion failed.  Reducing to  5 matrices.
 Large coefficients: NSaved=  5 BigCof=   13.20 CofMax=   10.00 Det=-1.03D-13
 Inversion failed.  Reducing to  4 matrices.
 Coeff-Com:  0.167D+00 0.505D+01-0.432D+01 0.113D+00
 Coeff:      0.167D+00 0.505D+01-0.432D+01 0.113D+00
 Gap=     0.030 Goal=   None    Shift=    0.000
 RMSDP=1.23D-06 MaxDP=3.74D-05 DE= 1.49D-08 OVMax= 2.39D-05

 Cycle  20  Pass 1  IDiag  1:
 E= -467.618353200217     Delta-E=       -0.000000000699 Rises=F Damp=F
 DIIS: error= 1.98D-06 at cycle  20 NSaved=   5.
 NSaved= 5 IEnMin= 3 EnMin= -467.618353214437     IErMin= 2 ErrMin= 1.74D-06
 ErrMax= 1.98D-06  0.00D+00 EMaxC= 1.00D-01 BMatC= 5.79D-10 BMatP= 2.21D-10
 IDIUse=1 WtCom= 1.00D+00 WtEn= 0.00D+00
 Coeff-Com:  0.342D+00 0.924D+01-0.896D+01 0.180D+00 0.208D+00
 Coeff:      0.342D+00 0.924D+01-0.896D+01 0.180D+00 0.208D+00
 Gap=     0.030 Goal=   None    Shift=    0.000
 RMSDP=2.61D-05 MaxDP=6.49D-04 DE=-6.99D-10 OVMax= 5.74D-04

 >>>>>>>>>> Convergence criterion not met.
 SCF Done:  E(RPBE1PBE) =  -467.618353200     A.U. after   21 cycles
            NFock= 20  Conv=0.26D-04     -V/T= 2.1585
 KE= 4.036383524249D+02 PE=-1.619112003235D+03 EE= 5.208356011045D+02
 Leave Link  502 at Sat Oct 18 11:59:42 2025, MaxMem=  4294967296 cpu:               8.6 elap:               1.1
 (Enter /opt/modules/software/gaussian/G16-C01/l508.exe)
 Keep R1 ints in memory in canonical form, NReq=8546330.
 FoFCou: FMM=F IPFlag=           0 FMFlag=           0 FMFlg1=           0
         NFxFlg=           0 DoJE=F BraDBF=F KetDBF=F FulRan=T
         wScrn=  0.000000 ICntrl=       600 IOpCl=  0 I1Cent=           0 NGrid=           0
         NMat0=    1 NMatS0=   1711 NMatT0=    0 NMatD0=    1 NMtDS0=    0 NMtDT0=    0
 Symmetry not used in FoFCou.
 Two-electron integral symmetry not used.
 Tight linear equation convergence will be used.
 RPBE1PBE wavefunction.
 Quadratic Convergence SCF Method.
 Line search only if initial step raises energy.
[...]
 LinEq1:  Iter=  4 NonCon=     1 RMS=4.98D-07 Max=4.76D-06 NDo=     1
 LinEq1:  Iter=  5 NonCon=     1 RMS=8.98D-07 Max=1.35D-05 NDo=     1
 LinEq1:  Iter=  6 NonCon=     1 RMS=1.09D-06 Max=1.08D-05 NDo=     1
 LinEq1:  Iter=  7 NonCon=     1 RMS=2.05D-06 Max=2.00D-05 NDo=     1
 LinEq1:  Iter=  8 NonCon=     1 RMS=2.42D-06 Max=3.25D-05 NDo=     1
 LinEq1:  Iter=  9 NonCon=     1 RMS=7.50D-07 Max=6.59D-06 NDo=     1
 LinEq1:  Iter= 10 NonCon=     1 RMS=2.27D-07 Max=2.08D-06 NDo=     1
 LinEq1:  Iter= 11 NonCon=     1 RMS=4.75D-08 Max=4.05D-07 NDo=     1
 LinEq1:  Iter= 12 NonCon=     1 RMS=1.67D-08 Max=1.72D-07 NDo=     1
 LinEq1:  Iter= 13 NonCon=     1 RMS=6.44D-09 Max=6.54D-08 NDo=     1
 LinEq1:  Iter= 14 NonCon=     1 RMS=2.54D-09 Max=2.37D-08 NDo=     1
 LinEq1:  Iter= 15 NonCon=     1 RMS=8.47D-10 Max=9.02D-09 NDo=     1
 LinEq1:  Iter= 16 NonCon=     1 RMS=2.25D-10 Max=2.04D-09 NDo=     1
 LinEq1:  Iter= 17 NonCon=     1 RMS=6.34D-11 Max=5.00D-10 NDo=     1
 LinEq1:  Iter= 18 NonCon=     1 RMS=1.74D-11 Max=2.09D-10 NDo=     1
 LinEq1:  Iter= 19 NonCon=     1 RMS=6.24D-12 Max=7.21D-11 NDo=     1
 LinEq1:  Iter= 20 NonCon=     0 RMS=1.34D-12 Max=1.10D-11 NDo=     1
 Linear equations converged to 6.019D-12 6.019D-11 after    20 iterations.
 Angle between quadratic step and gradient=  90.00 degrees.
     ILin= 1 X=0.000D+00 Y=-4.676552539707D+02 DE= 0.00D+00 F= -5.60D-13
     ILin= 2 X=1.000D+00 Y=-4.676552539707D+02 DE=-2.73D-12
 Iteration   4 EE= -467.655253970664     Delta-E=       -0.000000000003 Grad=1.009D-10 Max rot=    0.0000 deg.
 Rotation gradient small -- convergence achieved.
 SCF Done:  E(RPBE1PBE) =  -467.655253971     a.u. after    4 cycles
            Convg  =    0.1009D-09                    68 Fock formations.
              S**2 =  0.0000                  -V/T =  2.1579
 Leave Link  508 at Sat Oct 18 12:05:28 2025, MaxMem=  4294967296 cpu:              34.8 elap:               4.5
 (Enter /opt/modules/software/gaussian/G16-C01/l701.exe)
 ... and contract with generalized density number  0.
 Compute integral first derivatives.
   1 Symmetry operations used in ECPInt.
 ECPInt:  NShTT=     406 NPrTT=    3130 LenC2=     407 LenP2D=    2348.
 LDataN:  DoStor=T MaxTD1= 5 Len=  102
 Leave Link  701 at Sat Oct 18 12:05:28 2025, MaxMem=  4294967296 cpu:               0.7 elap:               0.1
 (Enter /opt/modules/software/gaussian/G16-C01/l702.exe)
 L702 exits ... SP integral derivatives will be done elsewhere.
 Leave Link  702 at Sat Oct 18 12:05:28 2025, MaxMem=  4294967296 cpu:               0.1 elap:               0.0
 (Enter /opt/modules/software/gaussian/G16-C01/l703.exe)
 Integral derivatives from FoFJK, PRISM(SPDF).
 Compute integral first derivatives, UseDBF=F ICtDFT=           0.
 Calling FoFJK, ICntrl=      2127 FMM=F ISym2X=0 I1Cent= 0 IOpClX= 0 NMat=1 NMatS=1 NMatT=0.
 FoFJK:  IHMeth= 1 ICntrl=    2127 DoSepK=F KAlg= 0 I1Cent=           0 FoldK=F
 IRaf=         0 NMat=       1 IRICut=       1 DoRegI=T DoRafI=F ISym2E= 0 IDoP0=0 IntGTp=1.
 FoFCou: FMM=F IPFlag=           0 FMFlag=      100000 FMFlg1=         800
         NFxFlg=           0 DoJE=F BraDBF=F KetDBF=F FulRan=T
         wScrn=  0.000000 ICntrl=      2127 IOpCl=  0 I1Cent=           0 NGrid=           0
         NMat0=    1 NMatS0=      1 NMatT0=    0 NMatD0=    1 NMtDS0=    0 NMtDT0=    0
 Symmetry not used in FoFCou.
 Leave Link  703 at Sat Oct 18 12:05:29 2025, MaxMem=  4294967296 cpu:               2.7 elap:               0.3
 (Enter /opt/modules/software/gaussian/G16-C01/l716.exe)
 Dipole        = 2.26777043D-02 1.21943240D-01-1.39679280D-03
 ***** Axes restored to original set *****
 -------------------------------------------------------------------
 Center     Atomic                   Forces (Hartrees/Bohr)
 Number     Number              X              Y              Z
 -------------------------------------------------------------------
      1       28           0.000169649   -0.000085079    0.000079967
      2        8          -0.000077921    0.000045987    0.000021797
      3        8          -0.000003746    0.000067902   -0.000024929
      4        8          -0.000030210   -0.000003635   -0.000086515
      5        8          -0.000057772   -0.000025175    0.000009680
 -------------------------------------------------------------------
 Cartesian Forces:  Max     0.000169649 RMS     0.000067724
 Leave Link  716 at Sat Oct 18 12:05:29 2025, MaxMem=  4294967296 cpu:               0.1 elap:               0.0
 (Enter /opt/modules/software/gaussian/G16-C01/l103.exe)

 GradGradGradGradGradGradGradGradGradGradGradGradGradGradGradGradGradGrad
 Berny optimization.
 Using GEDIIS/GDIIS optimizer.
 FormGI is forming the generalized inverse of G from B-inverse, IUseBI=4.
 Internal  Forces:  Max     0.000092633 RMS     0.000047445
 Search for a local minimum.
 Step number  67 out of a maximum of  100
 All quantities printed in internal units (Hartrees-Bohrs-Radians)
 RMS Force = .47445D-04 SwitMx=.10000D-02 MixMth= 2
 Mixed Optimization -- En-DIIS/RFO-DIIS
 Swapping is turned off.
 Update second derivatives using D2CorX and points   50   56   55   57   54
                                                     59   60   61   58   62
                                                     63   64   65   66   67
 DE= -7.70D-07 DEPred=-8.49D-07 R= 9.07D-01
 Trust test= 9.07D-01 RLast= 3.81D-03 DXMaxT set to 8.41D-02
 The second derivative matrix:
                          R1        R2        R3        R4        A1
           R1           0.23800
           R2           0.02076   0.23510
           R3           0.03253   0.03163   0.15913
           R4          -0.00156  -0.00096   0.04390   0.16683
           A1          -0.00284  -0.00308   0.01012   0.00047   0.02308
           A2           0.00878  -0.00455  -0.00948  -0.00169  -0.01686
           A3           0.00195   0.00125   0.01391  -0.01961  -0.01063
           A4          -0.00076   0.00240   0.01876  -0.02132  -0.00788
           A5          -0.00975   0.00386  -0.02657   0.01564  -0.00705
           A6           0.00807   0.00164   0.03381   0.02044   0.02160
           D1          -0.00984   0.00664  -0.00306   0.01515  -0.01543
           D2          -0.00071   0.00342  -0.00607  -0.00309   0.00856
           D3          -0.01119   0.00656  -0.00351  -0.00220   0.00357
           D4          -0.01047   0.00315   0.00256   0.00088  -0.00498
                          A2        A3        A4        A5        A6
           A2           0.03785
           A3          -0.00948   0.05656
           A4          -0.00028   0.01332   0.03150
           A5          -0.00043  -0.02496   0.00462   0.06191
           A6          -0.01189  -0.01535  -0.01718  -0.01871   0.07638
           D1           0.00634   0.01380  -0.00485  -0.00186  -0.00350
           D2          -0.00122   0.00102  -0.00705  -0.00666   0.00060
           D3           0.00030  -0.01267   0.00347   0.00162  -0.00917
           D4           0.00152  -0.01369   0.01052   0.00828  -0.00977
                          D1        D2        D3        D4
           D1           0.02347
           D2           0.00144   0.02919
           D3           0.00220   0.00882   0.04090
           D4           0.00076   0.00458   0.00713   0.02750
 ITU=  0  1  1  0  1  0 -1 -1 -1  0  0 -1 -1  0  0
     Eigenvalues ---    0.02099   0.02407   0.04508   0.07576   0.09657
     Eigenvalues ---    0.14249   0.20689   0.21918   0.28084
 En-DIIS/RFO-DIIS/Sim-DIIS IScMMF=       -3 using points:    67   66   65   64   63   62
 RFO step:  Lambda=-4.03059218D-07.
 NNeg= 0 NGDIIS= 6 SimSw=  2.50D-01 Rises=F DC= -7.70D-07 SmlDif=  1.00D-05
 NRisDI= 0 DoIntr=F SqrtH=F CThrHd= 10.0 CDAdj=  3.0
 RMS Error=  0.9109880048D-03 NUsed= 6 OKEnD=F EnDIS=F
 InvSVX:  RCond= 2.25D-06 Info=           0 Equed=N FErr=  1.68D-14 BErr=  5.80D-17
 DidBck=F Rises=F RFO-DIIS coefs:    0.77934    0.17625    0.17300   -0.05097   -0.02996
                  RFO-DIIS coefs:   -0.04766
 Iteration  1 RMS(Cart)=  0.00058160 RMS(Int)=  0.00000203
 Iteration  2 RMS(Cart)=  0.00000031 RMS(Int)=  0.00000201
 ITry= 1 IFail=0 DXMaxC= 1.06D-03 DCOld= 1.00D+10 DXMaxT= 8.41D-02 DXLimC= 3.00D+00 Rises=F
 Variable       Old X    -DE/DX   Delta X   Delta X   Delta X     New X
                                 (Linear)    (Quad)   (Total)
    R1        3.28152   0.00009  -0.00018   0.00059   0.00041   3.28192
    R2        3.19952  -0.00007  -0.00003  -0.00040  -0.00043   3.19910
    R3        3.25522   0.00009   0.00050   0.00020   0.00069   3.25592
    R4        3.25693  -0.00006  -0.00052  -0.00036  -0.00088   3.25605
    A1        1.90458   0.00001  -0.00076   0.00040  -0.00036   1.90422
    A2        1.91612  -0.00003  -0.00021  -0.00012  -0.00033   1.91578
    A3        1.91654  -0.00002   0.00029  -0.00076  -0.00047   1.91607
    A4        1.95809  -0.00002   0.00025  -0.00064  -0.00039   1.95770
    A5        1.95667  -0.00001   0.00073   0.00004   0.00077   1.95744
    A6        1.81011   0.00007  -0.00027   0.00106   0.00080   1.81091
    D1       -2.12087   0.00002   0.00095   0.00000   0.00095  -2.11992
    D2        2.12022  -0.00001  -0.00028   0.00001  -0.00027   2.11995
    D3       -2.04680   0.00001   0.00026  -0.00008   0.00018  -2.04662
    D4        2.11617   0.00002   0.00054  -0.00009   0.00045   2.11661
         Item               Value     Threshold  Converged?
 Maximum Force            0.000093     0.000450     YES
 RMS     Force            0.000047     0.000300     YES
 Maximum Displacement     0.001057     0.001800     YES
 RMS     Displacement     0.000582     0.001200     YES
 Predicted change in Energy=-1.716231D-07
 Optimization completed.
    -- Stationary point found.
                           ----------------------------
                           !   Optimized Parameters   !
                           ! (Angstroms and Degrees)  !
 --------------------------                            --------------------------
 ! Name  Definition              Value          Derivative Info.                !
 --------------------------------------------------------------------------------
 ! R1    R(1,2)                  1.7365         -DE/DX =    0.0001              !
 ! R2    R(1,3)                  1.6931         -DE/DX =   -0.0001              !
 ! R3    R(1,4)                  1.7226         -DE/DX =    0.0001              !
 ! R4    R(1,5)                  1.7235         -DE/DX =   -0.0001              !
 ! A1    A(2,1,3)              109.1242         -DE/DX =    0.0                 !
 ! A2    A(2,1,4)              109.7855         -DE/DX =    0.0                 !
 ! A3    A(2,1,5)              109.8097         -DE/DX =    0.0                 !
 ! A4    A(3,1,4)              112.1902         -DE/DX =    0.0                 !
 ! A5    A(3,1,5)              112.1091         -DE/DX =    0.0                 !
 ! A6    A(4,1,5)              103.7114         -DE/DX =    0.0001              !
 ! D1    D(2,1,4,3)           -121.5172         -DE/DX =    0.0                 !
 ! D2    D(2,1,5,3)            121.4797         -DE/DX =    0.0                 !
 ! D3    D(2,1,5,4)           -117.273          -DE/DX =    0.0                 !
 ! D4    D(3,1,5,4)            121.2473         -DE/DX =    0.0                 !
 --------------------------------------------------------------------------------
 Lowest energy point so far.  Saving SCF results.
 Largest change from initial coordinates is atom    2       1.959 Angstoms.
 GradGradGradGradGradGradGradGradGradGradGradGradGradGradGradGradGradGrad

 Leave Link  103 at Sat Oct 18 12:05:29 2025, MaxMem=  4294967296 cpu:               0.0 elap:               0.0
 (Enter /opt/modules/software/gaussian/G16-C01/l202.exe)
                          Input orientation:                          
 ---------------------------------------------------------------------
 Center     Atomic      Atomic             Coordinates (Angstroms)
 Number     Number       Type             X           Y           Z
 ---------------------------------------------------------------------
      1         28           0        1.490677   -0.896908    3.075780
      2          8           0        0.075794   -0.068941    3.648511
      3          8           0        1.472410   -2.489270    3.650836
      4          8           0        1.550918   -0.827036    1.355662
      5          8           0        2.905552   -0.045290    3.569033
 ---------------------------------------------------------------------
                    Distance matrix (angstroms):
                    1          2          3          4          5
     1  Ni   0.000000
     2  O    1.736504   0.000000
     3  O    1.693115   2.794376   0.000000
     4  O    1.722590   2.829816   2.834962   0.000000
     5  O    1.723492   2.830973   2.834365   2.710198   0.000000
 Stoichiometry    NiO4(6-)
 Framework group  C1[X(NiO4)]
 Deg. of freedom     9
 Full point group                 C1      NOp   1
 RotChk:  IX=1 Diff= 1.23D-14
 Largest Abelian subgroup         C1      NOp   1
 Largest concise Abelian subgroup C1      NOp   1
                         Standard orientation:                         
 ---------------------------------------------------------------------
 Center     Atomic      Atomic             Coordinates (Angstroms)
 Number     Number       Type             X           Y           Z
 ---------------------------------------------------------------------
      1         28           0        0.019074    0.014740   -0.000371
      2          8           0        0.966384   -1.440522    0.015884
      3          8           0        1.057148    1.352232   -0.012851
      4          8           0       -1.043835    0.003476   -1.355884
      5          8           0       -1.046457    0.033225    1.354150
 ---------------------------------------------------------------------
 Rotational constants (GHZ):           4.1694147           3.9944665           3.8801816
 Leave Link  202 at Sat Oct 18 12:05:29 2025, MaxMem=  4294967296 cpu:               0.0 elap:               0.0
 (Enter /opt/modules/software/gaussian/G16-C01/l601.exe)
 Copying SCF densities to generalized density rwf, IOpCl= 0 IROHF=0.

 **********************************************************************

            Population analysis using the SCF Density.

 **********************************************************************

 Orbital symmetries:
       Occupied  (A) (A) (A) (A) (A) (A) (A) (A) (A) (A) (A) (A)
                 (A) (A) (A) (A) (A) (A) (A) (A) (A) (A) (A) (A)
                 (A) (A) (A) (A)
       Virtual   (A) (A) (A) (A) (A) (A) (A) (A) (A) (A) (A) (A)
                 (A) (A) (A) (A) (A) (A) (A) (A) (A) (A) (A) (A)
                 (A) (A) (A) (A) (A) (A)
 The electronic state is 1-A.
 Alpha  occ. eigenvalues --  -18.34254 -18.33839 -18.33831 -18.33685  -3.34100
 Alpha  occ. eigenvalues --   -1.93438  -1.92757  -1.91820  -0.04440  -0.02789
 Alpha  occ. eigenvalues --   -0.02132  -0.01833   0.42002   0.42829   0.43575
 Alpha  occ. eigenvalues --    0.44829   0.44918   0.51696   0.55508   0.55766
 Alpha  occ. eigenvalues --    0.55880   0.61005   0.61119   0.61428   0.61681
 Alpha  occ. eigenvalues --    0.62594   0.63933   0.64115
 Alpha virt. eigenvalues --    0.66390   0.73460   0.74509   0.74885   0.86929
 Alpha virt. eigenvalues --    1.08332   1.09863   1.10504   1.33037   1.46912
 Alpha virt. eigenvalues --    1.47581   1.48040   1.50876   1.51310   1.66571
 Alpha virt. eigenvalues --    1.67207   1.67243   1.70046   1.71096   1.73161
 Alpha virt. eigenvalues --    1.76989   1.77883   1.98540   1.99380   1.99785
 Alpha virt. eigenvalues --    2.16614   2.36854   2.37645   2.38851   8.25515
          Condensed to atoms (all electrons):
               1          2          3          4          5
     1  Ni  20.878587   0.164736   0.195706   0.187589   0.187265
     2  O    0.164736   8.388533   0.010054   0.010132   0.010071
     3  O    0.195706   0.010054   8.350940   0.004155   0.004260
     4  O    0.187589   0.010132   0.004155   8.399399   0.017698
     5  O    0.187265   0.010071   0.004260   0.017698   8.399208
 Mulliken charges:
               1
     1  Ni  -3.613883
     2  O   -0.583525
     3  O   -0.565116
     4  O   -0.618974
     5  O   -0.618502
 Sum of Mulliken charges =  -6.00000
 Mulliken charges with hydrogens summed into heavy atoms:
               1
     1  Ni  -3.613883
     2  O   -0.583525
     3  O   -0.565116
     4  O   -0.618974
     5  O   -0.618502
 Electronic spatial extent (au):  <R**2>=            744.5384
 Charge=             -6.0000 electrons
 Dipole moment (field-independent basis, Debye):
    X=              0.0576    Y=              0.3099    Z=             -0.0036  Tot=              0.3153
 Quadrupole moment (field-independent basis, Debye-Ang):
   XX=           -197.7786   YY=           -198.0362   ZZ=           -151.6258
   XY=              0.6895   XZ=              0.0717   YZ=              0.2863
 Traceless Quadrupole moment (field-independent basis, Debye-Ang):
   XX=            -15.2984   YY=            -15.5560   ZZ=             30.8544
   XY=              0.6895   XZ=              0.0717   YZ=              0.2863
 Octapole moment (field-independent basis, Debye-Ang**2):
  XXX=             -8.8492  YYY=             -4.9563  ZZZ=              0.0302  XYY=            -11.0363
  XXY=             -1.5072  XXZ=              0.0377  XZZ=              7.5282  YZZ=              0.4903
  YYZ=              0.0603  XYZ=              0.1968
 Hexadecapole moment (field-independent basis, Debye-Ang**3):
 XXXX=          -2378.5741 YYYY=          -2404.7625 ZZZZ=          -1443.1353 XXXY=              6.4112
 XXXZ=              0.7551 YYYX=              7.5766 YYYZ=              3.1830 ZZZX=              0.7795
 ZZZY=              2.8959 XXYY=           -798.2255 XXZZ=           -639.2622 YYZZ=           -636.9201
 XXYZ=              1.0103 YYXZ=              0.2229 ZZXY=              1.6950
 N-N= 2.497812806209D+02 E-N=-1.663409735306D+03  KE= 4.038651301475D+02
 No NMR shielding tensors so no spin-rotation constants.
 Leave Link  601 at Sat Oct 18 12:05:29 2025, MaxMem=  4294967296 cpu:               0.4 elap:               0.1
 (Enter /opt/modules/software/gaussian/G16-C01/l9999.exe)
 Unable to Open any file for archive entry.
 1\1\GINC-PRCC02008\FOpt\RPBE1PBE\GenECP\Ni1O4(6-)\FUTERA\18-Oct-2025\0
 \\#p PBE1PBE/GenECP SCF(Tight,XQC,MaxCycle=500,MaxConventional=20) Opt
 (MaxCycle=500)\\Nickel ferrate (PBE0/LANL2DZ)\\-6,1\Ni,1.4906766103,-0
 .8969084362,3.0757796796\O,0.0757935658,-0.0689406273,3.6485109214\O,1
 .4724104349,-2.4892700114,3.6508358055\O,1.5509178019,-0.8270356863,1.
 3556617866\O,2.9055522538,-0.0452902387,3.5690331401\\Version=ES64L-G1
 6RevC.01\State=1-A\HF=-467.655254\RMSD=2.461e-12\RMSF=6.772e-05\Dipole
 =0.0479711,-0.1138827,0.010765\Quadrupole=-3.3735948,-8.2195955,11.593
 1903,5.2252709,14.0745732,7.9319095\PG=C01 [X(Ni1O4)]\\@
 The archive entry for this job was punched.


 I MET A TRAVELLER FROM AN ANTIQUE LAND
 WHO SAID... TWO VAST AND TRUNKLESS LEGS OF STONE
 STAND IN THE DESERT..... NEAR THEM,  ON THE SAND,
 HALF SUNK,  A SHATTERED VISAGE LIES,  WHOSE FROWN,
 AND WRINKLED LIP,  AND SNEER OF COLD COMMAND
 TELL THAT ITS SCULPTOR WELL THOSE PASSIONS READ
 WHICH YET SURVIVE,  STAMPED ON THESE LIFELESS THINGS
 THE HAND THAT MOCKED THEM,  AND THE HEART THAT FED-
 AND ON THE PEDESTAL THESE WORDS APPEAR 
 MY NAME IS OZYMANDIAS, KING OF KINGS--   
 LOOK ON MY WORKS YE MIGHTY AND DESPAIR. 
 NOTHING BESIDE REMAINS,  ROUND THE DECAY 
 OF THAT COLOSSAL WRECK,  BOUNDLESS AND BARE
 THE LONE AND LEVEL SANDS STRETCH FAR AWAY.
                                    SHELLEY
 Job cpu time:       0 days  0 hours 45 minutes 24.2 seconds.
 Elapsed time:       0 days  0 hours  5 minutes 48.3 seconds.
 File lengths (MBytes):  RWF=      6 Int=      0 D2E=      0 Chk=      1 Scr=      1
 Normal termination of Gaussian 16 at Sat Oct 18 12:05:29 2025.
