 Entering Gaussian System, Link 0=g16
 Input=nio4-q2-scan.com
 Output=nio4-q2-scan.log
 Initial command:
 /opt/modules/software/gaussian/G16-C01/l1.exe "/home/futera/Documents/2025-nife2o4-params/bond-parameters/pbe0-lanl2dz/Gau-3739867.inp" -scrdir="/home/futera/Documents/2025-nife2o4-params/bond-parameters/pbe0-lanl2dz/"
 Entering Link 1 = /opt/modules/software/gaussian/G16-C01/l1.exe PID=   3739868.
  
 Copyright (c) 1988-2019, Gaussian, Inc.  All Rights Reserved.
  
 This is part of the Gaussian(R) 16 program.  It is based on
 the Gaussian(R) 09 system (copyright 2009, Gaussian, Inc.),
 the Gaussian(R) 03 system (copyright 2003, Gaussian, Inc.),
 the Gaussian(R) 98 system (copyright 1998, Gaussian, Inc.),
 the Gaussian(R) 94 system (copyright 1995, Gaussian, Inc.),
 the Gaussian 92(TM) system (copyright 1992, Gaussian, Inc.),
 the Gaussian 90(TM) system (copyright 1990, Gaussian, Inc.),
 the Gaussian 88(TM) system (copyright 1988, Gaussian, Inc.),
 the Gaussian 86(TM) system (copyright 1986, Carnegie Mellon
 University), and the Gaussian 82(TM) system (copyright 1983,
 Carnegie Mellon University). Gaussian is a federally registered
 trademark of Gaussian, Inc.
  
 This software contains proprietary and confidential information,
 including trade secrets, belonging to Gaussian, Inc.
  
 This software is provided under written license and may be
 used, copied, transmitted, or stored only in accord with that
 written license.
  
 The following legend is applicable only to US Government
 contracts under FAR:
  
                    RESTRICTED RIGHTS LEGEND
  
 Use, reproduction and disclosure by the US Government is
 subject to restrictions as set forth in subparagraphs (a)
 and (c) of the Commercial Computer Software - Restricted
 Rights clause in FAR 52.227-19.
  
 Gaussian, Inc.
 340 Quinnipiac St., Bldg. 40, Wallingford CT 06492
  
  
 ---------------------------------------------------------------
 Warning -- This program may not be used in any manner that
 competes with the business of Gaussian, Inc. or will provide
 assistance to any competitor of Gaussian, Inc.  The licensee
 of this program is prohibited from giving any competitor of
 Gaussian, Inc. access to this program.  By using this program,
 the user acknowledges that Gaussian, Inc. is engaged in the
 business of creating and licensing software in the field of
 computational chemistry and represents and warrants to the
 licensee that it is not a competitor of Gaussian, Inc. and that
 it will not use this program in any manner prohibited above.
 ---------------------------------------------------------------
  

 Cite this work as:
 Gaussian 16, Revision C.01,
 M. J. Frisch, G. W. Trucks, H. B. Schlegel, G. E. Scuseria, 
 M. A. Robb, J. R. Cheeseman, G. Scalmani, V. Barone, 
 G. A. Petersson, H. Nakatsuji, X. Li, M. Caricato, A. V. Marenich, 
 J. Bloino, B. G. Janesko, R. Gomperts, B. Mennucci, H. P. Hratchian, 
 J. V. Ortiz, A. F. Izmaylov, J. L. Sonnenberg, D. Williams-Young, 
 F. Ding, F. Lipparini, F. Egidi, J. Goings, B. Peng, A. Petrone, 
 T. Henderson, D. Ranasinghe, V. G. Zakrzewski, J. Gao, N. Rega, 
 G. Zheng, W. Liang, M. Hada, M. Ehara, K. Toyota, R. Fukuda, 
 J. Hasegawa, M. Ishida, T. Nakajima, Y. Honda, O. Kitao, H. Nakai, 
 T. Vreven, K. Throssell, J. A. Montgomery, Jr., J. E. Peralta, 
 F. Ogliaro, M. J. Bearpark, J. J. Heyd, E. N. Brothers, K. N. Kudin, 
 V. N. Staroverov, T. A. Keith, R. Kobayashi, J. Normand, 
 K. Raghavachari, A. P. Rendell, J. C. Burant, S. S. Iyengar, 
 J. Tomasi, M. Cossi, J. M. Millam, M. Klene, C. Adamo, R. Cammi, 
 J. W. Ochterski, R. L. Martin, K. Morokuma, O. Farkas, 
 J. B. Foresman, and D. J. Fox, Gaussian, Inc., Wallingford CT, 2019.
 
 ******************************************
 Gaussian 16:  ES64L-G16RevC.01  3-Jul-2019
                18-Oct-2025 
 ******************************************
 %mem=32GB
 %nproc=8
 Will use up to    8 processors via shared memory.
 ---------------------------------------------------------------------
 #p PBE1PBE/GenECP SCF(Tight,XQC,MaxCycle=500,MaxConventional=20) Scan
 ---------------------------------------------------------------------
 1/38=1,60=1,172=1/1,8;
 2/12=2,17=6,18=5,29=3,40=1/2;
 3/5=7,11=2,16=1,17=8,25=1,30=1,74=-13/1,2,3;
 4//1;
 5/5=2,7=500,8=3,13=1,32=2,38=5,85=20/2,8;
 6/7=2,8=2,9=2,10=2,18=1,28=1/1;
 1/60=1/8(1);
 99/9=1/99;
 2/29=3/2;
 3/5=7,6=1,11=2,16=1,17=8,25=1,30=1,74=-13,82=7/1,2,3;
 4/5=5,16=3,69=1/1;
 5/5=2,7=500,8=3,13=1,32=2,38=5,85=20/2,8;
 1/60=1/8(-4);
 99/9=1/99;
 Leave Link    1 at Sat Oct 18 14:07:06 2025, MaxMem=  4294967296 cpu:               0.2 elap:               0.0
 (Enter /opt/modules/software/gaussian/G16-C01/l101.exe)
 -----------------------------
 Nickel ferrate (PBE0/LANL2DZ)
 -----------------------------
 Symbolic Z-matrix:
 Charge = -2 Multiplicity = 1
 ni
 o                    1    r
 o                    1    r        2     109.471 
 o                    1    r        3     109.471  2    -120.     0
 o                    1    r        4     109.471  3     120.     0
       Variables:
  r                     1.     Scan 180   0.05   
 
     3 tetrahedral angles replaced.
 ITRead=  0  0  0  0  0
 MicOpt= -1 -1 -1 -1 -1
 NAtoms=      5 NQM=        5 NQMF=       0 NMMI=      0 NMMIF=      0
                NMic=       0 NMicF=      0.
    3 tetrahedral angles replaced.
                    Isotopes and Nuclear Properties:
 (Nuclear quadrupole moments (NQMom) in fm**2, nuclear magnetic moments (NMagM)
  in nuclear magnetons)

  Atom         1           2           3           4           5
 IAtWgt=          58          16          16          16          16
 AtmWgt=  57.9353471  15.9949146  15.9949146  15.9949146  15.9949146
 NucSpn=           0           0           0           0           0
 AtZEff=  -0.0000000  -0.0000000  -0.0000000  -0.0000000  -0.0000000
 NQMom=    0.0000000   0.0000000   0.0000000   0.0000000   0.0000000
 NMagM=    0.0000000   0.0000000   0.0000000   0.0000000   0.0000000
 AtZNuc=  28.0000000   8.0000000   8.0000000   8.0000000   8.0000000
 Leave Link  101 at Sat Oct 18 14:07:06 2025, MaxMem=  4294967296 cpu:               0.7 elap:               0.1
 (Enter /opt/modules/software/gaussian/G16-C01/l108.exe)
 Scan the potential surface.
 Variable   Value     No. Steps Step-Size
 -------- ----------- --------- ---------
     1       1.000000     180      0.0500
 A total of    181 points will be computed.
 Leave Link  108 at Sat Oct 18 14:07:06 2025, MaxMem=  4294967296 cpu:               0.0 elap:               0.0
 (Enter /opt/modules/software/gaussian/G16-C01/l202.exe)
 ---------------------------------------------------------------------------------------------------
                            Z-MATRIX (ANGSTROMS AND DEGREES)
   CD    Cent   Atom    N1       Length/X        N2       Alpha/Y        N3        Beta/Z          J
 ---------------------------------------------------------------------------------------------------
      1      1  Ni
      2      2  O        1   1.000000(     1)
      3      3  O        1   1.000000(     2)      2  109.471(     5)
      4      4  O        1   1.000000(     3)      3  109.471(     6)      2 -120.000(     8)      0
      5      5  O        1   1.000000(     4)      4  109.471(     7)      3  120.000(     9)      0
 ---------------------------------------------------------------------------------------------------
                         Z-Matrix orientation:                         
 ---------------------------------------------------------------------
 Center     Atomic      Atomic             Coordinates (Angstroms)
 Number     Number       Type             X           Y           Z
 ---------------------------------------------------------------------
      1         28           0        0.000000    0.000000    0.000000
      2          8           0        0.000000    0.000000    1.000000
      3          8           0        0.942809    0.000000   -0.333333
      4          8           0       -0.471405   -0.816497   -0.333333
      5          8           0       -0.471405    0.816497   -0.333333
 ---------------------------------------------------------------------
                    Distance matrix (angstroms):
                    1          2          3          4          5
     1  Ni   0.000000
     2  O    1.000000   0.000000
     3  O    1.000000   1.632993   0.000000
     4  O    1.000000   1.632993   1.632993   0.000000
     5  O    1.000000   1.632993   1.632993   1.632993   0.000000
 Stoichiometry    NiO4(2-)
 Framework group  TD[O(Ni),4C3(O)]
 Deg. of freedom     1
 Full point group                 TD      NOp  24
 Largest Abelian subgroup         D2      NOp   4
 Largest concise Abelian subgroup D2      NOp   4
                         Standard orientation:                         
 ---------------------------------------------------------------------
 Center     Atomic      Atomic             Coordinates (Angstroms)
 Number     Number       Type             X           Y           Z
 ---------------------------------------------------------------------
      1         28           0        0.000000    0.000000    0.000000
      2          8           0        0.577350    0.577350    0.577350
      3          8           0       -0.577350   -0.577350    0.577350
      4          8           0       -0.577350    0.577350   -0.577350
      5          8           0        0.577350   -0.577350   -0.577350
 ---------------------------------------------------------------------
 Rotational constants (GHZ):          11.8485864          11.8485864          11.8485864
 Leave Link  202 at Sat Oct 18 14:07:06 2025, MaxMem=  4294967296 cpu:               0.0 elap:               0.0
 (Enter /opt/modules/software/gaussian/G16-C01/l301.exe)
 General basis read from cards:  (5D, 7F)
 Centers:       2      3      4      5
 S 7 1.00
     Exponent=  7.8170000000D+03 Coefficients=  1.1760000000D-03
     Exponent=  1.1760000000D+03 Coefficients=  8.9680000000D-03
     Exponent=  2.7320000000D+02 Coefficients=  4.2868000000D-02
     Exponent=  8.1170000000D+01 Coefficients=  1.4393000000D-01
     Exponent=  2.7180000000D+01 Coefficients=  3.5563000000D-01
     Exponent=  9.5320000000D+00 Coefficients=  4.6124800000D-01
     Exponent=  3.4140000000D+00 Coefficients=  1.4020600000D-01
 S 2 1.00
     Exponent=  9.5320000000D+00 Coefficients= -1.5415300000D-01
     Exponent=  9.3980000000D-01 Coefficients=  1.0569140000D+00
 S 1 1.00
     Exponent=  2.8460000000D-01 Coefficients=  1.0000000000D+00
 P 4 1.00
     Exponent=  3.5180000000D+01 Coefficients=  1.9580000000D-02
     Exponent=  7.9040000000D+00 Coefficients=  1.2420000000D-01
     Exponent=  2.3050000000D+00 Coefficients=  3.9471400000D-01
     Exponent=  7.1710000000D-01 Coefficients=  6.2737600000D-01
 P 1 1.00
     Exponent=  2.1370000000D-01 Coefficients=  1.0000000000D+00
 ****
 Centers:       1
 S 3 1.00
     Exponent=  7.6200000000D+00 Coefficients= -4.0825500000D-01
     Exponent=  2.2940000000D+00 Coefficients=  7.4553080000D-01
     Exponent=  8.7600000000D-01 Coefficients=  5.3257210000D-01
 S 4 1.00
     Exponent=  7.6200000000D+00 Coefficients=  1.8725910000D-01
     Exponent=  2.2940000000D+00 Coefficients= -3.9669640000D-01
     Exponent=  8.7600000000D-01 Coefficients= -4.9540030000D-01
     Exponent=  1.1530000000D-01 Coefficients=  1.0844343000D+00
 S 1 1.00
     Exponent=  3.9600000000D-02 Coefficients=  1.0000000000D+00
 P 3 1.00
     Exponent=  2.3660000000D+01 Coefficients= -4.8155800000D-02
     Exponent=  2.8930000000D+00 Coefficients=  6.2584730000D-01
     Exponent=  9.4350000000D-01 Coefficients=  4.7151580000D-01
 P 1 1.00
     Exponent=  8.4000000000D-02 Coefficients=  1.0000000000D+00
 P 1 1.00
     Exponent=  2.4000000000D-02 Coefficients=  1.0000000000D+00
 D 4 1.00
     Exponent=  4.2720000000D+01 Coefficients=  3.7269900000D-02
     Exponent=  1.1760000000D+01 Coefficients=  1.9561030000D-01
     Exponent=  3.8170000000D+00 Coefficients=  4.5612730000D-01
     Exponent=  1.1690000000D+00 Coefficients=  5.6215870000D-01
 D 1 1.00
     Exponent=  2.8360000000D-01 Coefficients=  1.0000000000D+00
 ****
 ======================================================================================================
                                       Pseudopotential Parameters
 ======================================================================================================
  Center     Atomic      Valence      Angular      Power
  Number     Number     Electrons     Momentum     of R      Exponent        Coefficient   SO-Coeffient
 ======================================================================================================
    1         28           18
                                      D and up 
                                                     1      469.9324331      -10.00000000    0.00000000
                                                     2       85.4236411      -69.40848050    0.00000000
                                                     2       21.2674984      -12.09510200    0.00000000
                                      S - D
                                                     0      162.1686097        3.00000000    0.00000000
                                                     1      176.5333232       22.02536180    0.00000000
                                                     2       68.9562010      443.01810880    0.00000000
                                                     2       13.5792838      145.56964110    0.00000000
                                      P - D
                                                     0       69.0181506        5.00000000    0.00000000
                                                     1      275.5955596        4.98828240    0.00000000
                                                     2       47.1315453      256.69458530    0.00000000
                                                     2       12.9874075       78.47544500    0.00000000
    2          8
                                   No pseudopotential on this center.
    3          8
                                   No pseudopotential on this center.
    4          8
                                   No pseudopotential on this center.
    5          8
                                   No pseudopotential on this center.
 ======================================================================================================
 Ernie: Thresh=  0.10000D-02 Tol=  0.10000D-05 Strict=F.
 Ernie:  1 primitive shells out of 78 were deleted.
 There are    18 symmetry adapted cartesian basis functions of A   symmetry.
 There are    14 symmetry adapted cartesian basis functions of B1  symmetry.
 There are    14 symmetry adapted cartesian basis functions of B2  symmetry.
 There are    14 symmetry adapted cartesian basis functions of B3  symmetry.
 There are    16 symmetry adapted basis functions of A   symmetry.
 There are    14 symmetry adapted basis functions of B1  symmetry.
 There are    14 symmetry adapted basis functions of B2  symmetry.
 There are    14 symmetry adapted basis functions of B3  symmetry.
    58 basis functions,   152 primitive gaussians,    60 cartesian basis functions
    26 alpha electrons       26 beta electrons
       nuclear repulsion energy       429.2426319152 Hartrees.
 IExCor= 1009 DFT=T Ex+Corr=PBE1PBE ExCW=0 ScaHFX=  0.250000
 ScaDFX=  0.750000  0.750000  1.000000  1.000000 ScalE2=  1.000000  1.000000
 IRadAn=      5 IRanWt=     -1 IRanGd=            0 ICorTp=0 IEmpDi=  4
 NAtoms=    5 NActive=    5 NUniq=    2 SFac= 4.00D+00 NAtFMM=   60 NAOKFM=F Big=F
 Integral buffers will be    131072 words long.
 Raffenetti 2 integral format.
 Two-electron integral symmetry is turned on.
 Leave Link  301 at Sat Oct 18 14:07:06 2025, MaxMem=  4294967296 cpu:               0.3 elap:               0.0
 (Enter /opt/modules/software/gaussian/G16-C01/l302.exe)
 NPDir=0 NMtPBC=     1 NCelOv=     1 NCel=       1 NClECP=     1 NCelD=      1
         NCelK=      1 NCelE2=     1 NClLst=     1 CellRange=     0.0.
 One-electron integrals computed using PRISM.
 One-electron integral symmetry used in STVInt
  24 Symmetry operations used in ECPInt.
 ECPInt:  NShTT=     406 NPrTT=    3130 LenC2=     407 LenP2D=    2674.
 LDataN:  DoStor=T MaxTD1= 4 Len=   56
 NBasis=    58 RedAO= T EigKep=  1.43D-02  NBF=    16    14    14    14
 NBsUse=    58 1.00D-06 EigRej= -1.00D+00 NBFU=    16    14    14    14
 Precomputing XC quadrature grid using
 IXCGrd= 4 IRadAn=           5 IRanWt=          -1 IRanGd=           0 AccXCQ= 0.00D+00.
 Generated NRdTot=       0 NPtTot=           0 NUsed=           0 NTot=          32
 NSgBfM=    60    60    60    60    60 MxSgAt=     5 MxSgA2=     5.
 Leave Link  302 at Sat Oct 18 14:07:06 2025, MaxMem=  4294967296 cpu:               0.6 elap:               0.1
 (Enter /opt/modules/software/gaussian/G16-C01/l303.exe)
 DipDrv:  MaxL=1.
 Leave Link  303 at Sat Oct 18 14:07:07 2025, MaxMem=  4294967296 cpu:               0.1 elap:               0.0
 (Enter /opt/modules/software/gaussian/G16-C01/l401.exe)
 ExpMin= 2.40D-02 ExpMax= 7.82D+03 ExpMxC= 2.73D+02 IAcc=3 IRadAn=         5 AccDes= 0.00D+00
 Harris functional with IExCor= 1009 and IRadAn=       5 diagonalized for initial guess.
 HarFok:  IExCor= 1009 AccDes= 0.00D+00 IRadAn=         5 IDoV= 1 UseB2=F ITyADJ=14
 ICtDFT=  3500011 ScaDFX=  1.000000  1.000000  1.000000  1.000000
 FoFCou: FMM=F IPFlag=           0 FMFlag=      100000 FMFlg1=           0
         NFxFlg=           0 DoJE=T BraDBF=F KetDBF=T FulRan=T
         wScrn=  0.000000 ICntrl=       500 IOpCl=  0 I1Cent=   200000004 NGrid=           0
         NMat0=    1 NMatS0=      1 NMatT0=    0 NMatD0=    1 NMtDS0=    0 NMtDT0=    0
 Petite list used in FoFCou.
 Harris En= -465.377914802891    
 JPrj=0 DoOrth=F DoCkMO=F.
 Initial guess orbital symmetries:
       Occupied  (A1) (T2) (T2) (T2) (A1) (T2) (T2) (T2) (T2) (T2)
                 (T2) (A1) (E) (E) (T2) (T2) (T2) (T2) (T2) (T2)
                 (T1) (T1) (T1) (A1) (E) (E)
       Virtual   (A1) (T2) (T2) (T2) (T2) (T2) (T2) (T2) (T2) (T2)
                 (E) (E) (T2) (T2) (T2) (T1) (T1) (T1) (A1) (T2)
                 (T2) (T2) (T2) (T2) (T2) (A1) (E) (E) (T2) (T2)
                 (T2) (A1)
 The electronic state of the initial guess is 1-A1.
 Leave Link  401 at Sat Oct 18 14:07:07 2025, MaxMem=  4294967296 cpu:               0.6 elap:               0.1
 (Enter /opt/modules/software/gaussian/G16-C01/l502.exe)
 Keep R1 ints in memory in symmetry-blocked form, NReq=8551516.
 FoFCou: FMM=F IPFlag=           0 FMFlag=           0 FMFlg1=           0
         NFxFlg=           0 DoJE=F BraDBF=F KetDBF=F FulRan=T
         wScrn=  0.000000 ICntrl=       600 IOpCl=  0 I1Cent=           0 NGrid=           0
         NMat0=    1 NMatS0=   1711 NMatT0=    0 NMatD0=    1 NMtDS0=    0 NMtDT0=    0
 Petite list used in FoFCou.
 Closed shell SCF:
 Using DIIS extrapolation, IDIIS=  1040.
 NGot=  4294967296 LenX=  4294585980 LenY=  4294581939
 Requested convergence on RMS density matrix=1.00D-08 within  20 cycles.
 Requested convergence on MAX density matrix=1.00D-06.
 Requested convergence on             energy=1.00D-06.
 No special actions if energy rises.

 Cycle   1  Pass 1  IDiag  1:
 E= -463.381975925574    
 DIIS: error= 8.89D-02 at cycle   1 NSaved=   1.
 NSaved= 1 IEnMin= 1 EnMin= -463.381975925574     IErMin= 1 ErrMin= 8.89D-02
 ErrMax= 8.89D-02  0.00D+00 EMaxC= 1.00D-01 BMatC= 7.70D-01 BMatP= 7.70D-01
 IDIUse=3 WtCom= 1.11D-01 WtEn= 8.89D-01
 Coeff-Com:  0.100D+01
 Coeff-En:   0.100D+01
 Coeff:      0.100D+01
 Gap=     0.181 Goal=   None    Shift=    0.000
 GapD=    0.181 DampG=1.000 DampE=0.250 DampFc=0.2500 IDamp=-1.
 Damping current iteration by 2.50D-01
 RMSDP=9.64D-02 MaxDP=1.73D+00              OVMax= 2.53D-01

 Cycle   2  Pass 1  IDiag  1:
 Density matrix breaks symmetry, PCut= 1.00D-04
 Density has only Abelian symmetry.
 E= -463.522354247149     Delta-E=       -0.140378321575 Rises=F Damp=T
 DIIS: error= 6.66D-02 at cycle   2 NSaved=   2.
 NSaved= 2 IEnMin= 2 EnMin= -463.522354247149     IErMin= 2 ErrMin= 6.66D-02
 ErrMax= 6.66D-02  0.00D+00 EMaxC= 1.00D-01 BMatC= 2.21D-01 BMatP= 7.70D-01
 IDIUse=3 WtCom= 3.34D-01 WtEn= 6.66D-01
 Coeff-Com: -0.114D+00 0.111D+01
 Coeff-En:   0.373D+00 0.627D+00
 Coeff:      0.210D+00 0.790D+00
 Gap=     0.092 Goal=   None    Shift=    0.000
 RMSDP=2.69D-02 MaxDP=4.31D-01 DE=-1.40D-01 OVMax= 1.08D-01

 Cycle   3  Pass 1  IDiag  1:
 Density matrix breaks symmetry, PCut= 1.00D-04
 Density has only Abelian symmetry.
 E= -463.742904534812     Delta-E=       -0.220550287663 Rises=F Damp=F
 DIIS: error= 1.10D-01 at cycle   3 NSaved=   3.
 NSaved= 3 IEnMin= 3 EnMin= -463.742904534812     IErMin= 2 ErrMin= 6.66D-02
 ErrMax= 1.10D-01  0.00D+00 EMaxC= 1.00D-01 BMatC= 4.94D-01 BMatP= 2.21D-01
 IDIUse=2 WtCom= 0.00D+00 WtEn= 1.00D+00
 Coeff-En:   0.000D+00 0.337D+00 0.663D+00
 Coeff:      0.000D+00 0.337D+00 0.663D+00
 Gap=     0.000 Goal=   None    Shift=    0.000
 RMSDP=6.38D-02 MaxDP=1.66D+00 DE=-2.21D-01 OVMax= 2.25D-01

 Cycle   4  Pass 1  IDiag  1:
 Density matrix breaks symmetry, PCut= 1.00D-04
 Density has only Abelian symmetry.
 E= -461.364519088574     Delta-E=        2.378385446238 Rises=F Damp=F
 DIIS: error= 2.49D-01 at cycle   4 NSaved=   4.
 NSaved= 4 IEnMin= 3 EnMin= -463.742904534812     IErMin= 2 ErrMin= 6.66D-02
 ErrMax= 2.49D-01  0.00D+00 EMaxC= 1.00D-01 BMatC= 3.51D+00 BMatP= 2.21D-01
 IDIUse=2 WtCom= 0.00D+00 WtEn= 1.00D+00
 Coeff-En:   0.000D+00 0.000D+00 0.771D+00 0.229D+00
 Coeff:      0.000D+00 0.000D+00 0.771D+00 0.229D+00
 Gap=     0.022 Goal=   None    Shift=    0.000
 RMSDP=6.40D-02 MaxDP=1.66D+00 DE= 2.38D+00 OVMax= 3.18D-02

 Cycle   5  Pass 1  IDiag  1:
 Density matrix breaks symmetry, PCut= 1.00D-04
 Density has only Abelian symmetry.
 E= -463.979367287657     Delta-E=       -2.614848199083 Rises=F Damp=F
 DIIS: error= 3.47D-02 at cycle   5 NSaved=   5.
 NSaved= 5 IEnMin= 5 EnMin= -463.979367287657     IErMin= 5 ErrMin= 3.47D-02
 ErrMax= 3.47D-02  0.00D+00 EMaxC= 1.00D-01 BMatC= 6.84D-02 BMatP= 2.21D-01
 IDIUse=3 WtCom= 6.53D-01 WtEn= 3.47D-01
 EnCoef did    15 forward-backward iterations
 Coeff-Com: -0.352D+00 0.471D+00 0.655D-01-0.784D-02 0.824D+00
 Coeff-En:   0.000D+00 0.000D+00 0.669D-01 0.125D+00 0.808D+00
 Coeff:     -0.230D+00 0.307D+00 0.659D-01 0.384D-01 0.818D+00
 Gap=     0.011 Goal=   None    Shift=    0.000
 RMSDP=5.41D-03 MaxDP=1.32D-01 DE=-2.61D+00 OVMax= 7.53D-03

 Cycle   6  Pass 1  IDiag  1:
 Density matrix breaks symmetry, PCut= 1.00D-04
 Density has only Abelian symmetry.
 E= -464.019290622626     Delta-E=       -0.039923334969 Rises=F Damp=F
 DIIS: error= 2.52D-02 at cycle   6 NSaved=   6.
 NSaved= 6 IEnMin= 6 EnMin= -464.019290622626     IErMin= 6 ErrMin= 2.52D-02
 ErrMax= 2.52D-02  0.00D+00 EMaxC= 1.00D-01 BMatC= 4.03D-02 BMatP= 6.84D-02
 IDIUse=3 WtCom= 7.48D-01 WtEn= 2.52D-01
 Coeff-Com: -0.138D+00 0.217D+00-0.259D+00-0.277D-02-0.765D-01 0.126D+01
 Coeff-En:   0.000D+00 0.000D+00 0.000D+00 0.107D+00 0.000D+00 0.893D+00
 Coeff:     -0.103D+00 0.162D+00-0.194D+00 0.248D-01-0.573D-01 0.117D+01
 Gap=     0.000 Goal=   None    Shift=    0.000
 RMSDP=6.13D-02 MaxDP=1.65D+00 DE=-3.99D-02 OVMax= 3.44D-02

 Cycle   7  Pass 1  IDiag  1:
 Density matrix breaks symmetry, PCut= 1.00D-04
 Density has only Abelian symmetry.
 E= -462.446263774325     Delta-E=        1.573026848301 Rises=F Damp=F
 DIIS: error= 1.38D-01 at cycle   7 NSaved=   7.
 NSaved= 7 IEnMin= 6 EnMin= -464.019290622626     IErMin= 6 ErrMin= 2.52D-02
 ErrMax= 1.38D-01  0.00D+00 EMaxC= 1.00D-01 BMatC= 1.36D+00 BMatP= 4.03D-02
 IDIUse=2 WtCom= 0.00D+00 WtEn= 1.00D+00
 Coeff-En:   0.000D+00 0.000D+00 0.000D+00 0.000D+00 0.000D+00 0.850D+00
 Coeff-En:   0.150D+00
 Coeff:      0.000D+00 0.000D+00 0.000D+00 0.000D+00 0.000D+00 0.850D+00
 Coeff:      0.150D+00
 Gap=     0.010 Goal=   None    Shift=    0.000
 RMSDP=6.14D-02 MaxDP=1.65D+00 DE= 1.57D+00 OVMax= 6.54D-03

 Cycle   8  Pass 1  IDiag  1:
 Density matrix breaks symmetry, PCut= 1.00D-04
 Density has only Abelian symmetry.
 E= -464.017692958054     Delta-E=       -1.571429183729 Rises=F Damp=F
 DIIS: error= 1.94D-02 at cycle   8 NSaved=   8.
 NSaved= 8 IEnMin= 6 EnMin= -464.019290622626     IErMin= 8 ErrMin= 1.94D-02
 ErrMax= 1.94D-02  0.00D+00 EMaxC= 1.00D-01 BMatC= 3.77D-02 BMatP= 4.03D-02
 IDIUse=3 WtCom= 8.06D-01 WtEn= 1.94D-01
 EnCoef did   100 forward-backward iterations
 Coeff-Com: -0.148D+00 0.232D+00-0.250D+00 0.123D-01-0.460D+00-0.192D+00
 Coeff-Com: -0.235D-01 0.183D+01
 Coeff-En:   0.000D+00 0.000D+00 0.000D+00 0.000D+00 0.000D+00 0.257D+00
 Coeff-En:   0.152D+00 0.592D+00
 Coeff:     -0.120D+00 0.187D+00-0.202D+00 0.990D-02-0.371D+00-0.105D+00
 Coeff:      0.104D-01 0.159D+01
 Gap=     0.000 Goal=   None    Shift=    0.000
 RMSDP=6.12D-02 MaxDP=1.65D+00 DE=-1.57D+00 OVMax= 3.98D-02

 Cycle   9  Pass 1  IDiag  1:
 Density matrix breaks symmetry, PCut= 1.00D-04
 Density has only Abelian symmetry.
 E= -462.463488816155     Delta-E=        1.554204141900 Rises=F Damp=F
 DIIS: error= 1.37D-01 at cycle   9 NSaved=   9.
 NSaved= 9 IEnMin= 6 EnMin= -464.019290622626     IErMin= 8 ErrMin= 1.94D-02
 ErrMax= 1.37D-01  0.00D+00 EMaxC= 1.00D-01 BMatC= 1.34D+00 BMatP= 3.77D-02
 IDIUse=2 WtCom= 0.00D+00 WtEn= 1.00D+00
 EnCoef did   100 forward-backward iterations
 Coeff-En:   0.000D+00 0.000D+00 0.000D+00 0.000D+00 0.000D+00 0.324D+00
 Coeff-En:   0.150D+00 0.525D+00 0.158D-02
 Coeff:      0.000D+00 0.000D+00 0.000D+00 0.000D+00 0.000D+00 0.324D+00
 Coeff:      0.150D+00 0.525D+00 0.158D-02
 Gap=     0.010 Goal=   None    Shift=    0.000
 RMSDP=6.12D-02 MaxDP=1.65D+00 DE= 1.55D+00 OVMax= 5.24D-03

 Cycle  10  Pass 1  IDiag  1:
 Density matrix breaks symmetry, PCut= 1.00D-04
 Density has only Abelian symmetry.
 E= -464.017972837922     Delta-E=       -1.554484021768 Rises=F Damp=F
 DIIS: error= 2.31D-02 at cycle  10 NSaved=  10.
 NSaved=10 IEnMin= 6 EnMin= -464.019290622626     IErMin= 8 ErrMin= 1.94D-02
 ErrMax= 2.31D-02  0.00D+00 EMaxC= 1.00D-01 BMatC= 4.02D-02 BMatP= 3.77D-02
 IDIUse=3 WtCom= 8.06D-01 WtEn= 1.94D-01
 Coeff-Com: -0.143D+00 0.223D+00-0.210D+00 0.198D-01-0.929D+00 0.568D+00
 Coeff-Com:  0.146D+01 0.689D+01-0.151D+01-0.537D+01
 Coeff-En:   0.000D+00 0.000D+00 0.000D+00 0.000D+00 0.000D+00 0.000D+00
 Coeff-En:   0.000D+00 0.000D+00 0.153D+00 0.847D+00
 Coeff:     -0.115D+00 0.180D+00-0.170D+00 0.159D-01-0.749D+00 0.458D+00
 Coeff:      0.118D+01 0.555D+01-0.119D+01-0.417D+01
 Gap=     0.000 Goal=   None    Shift=    0.000
 RMSDP=6.16D-02 MaxDP=1.66D+00 DE=-1.55D+00 OVMax= 4.66D-02

 Cycle  11  Pass 1  IDiag  1:
 Density matrix breaks symmetry, PCut= 1.00D-04
 Density has only Abelian symmetry.
 E= -462.417367650605     Delta-E=        1.600605187317 Rises=F Damp=F
 DIIS: error= 1.40D-01 at cycle  11 NSaved=  11.
 NSaved=11 IEnMin= 6 EnMin= -464.019290622626     IErMin= 8 ErrMin= 1.94D-02
 ErrMax= 1.40D-01  0.00D+00 EMaxC= 1.00D-01 BMatC= 1.41D+00 BMatP= 3.77D-02
 IDIUse=2 WtCom= 0.00D+00 WtEn= 1.00D+00
 Rare condition: small coef for last iteration:  0.000D+00
 Coeff-En:   0.000D+00 0.000D+00 0.000D+00 0.000D+00 0.000D+00 0.000D+00
 Coeff-En:   0.000D+00 0.617D-03 0.414D-03 0.848D+00 0.151D+00
 Coeff:      0.000D+00 0.000D+00 0.000D+00 0.000D+00 0.000D+00 0.000D+00
 Coeff:      0.000D+00 0.617D-03 0.414D-03 0.848D+00 0.151D+00
 Gap=     0.011 Goal=   None    Shift=    0.000
 RMSDP=6.16D-02 MaxDP=1.66D+00 DE= 1.60D+00 OVMax= 7.12D-03

 Cycle  12  Pass 1  IDiag  1:
 Density matrix breaks symmetry, PCut= 1.00D-04
 Density has only Abelian symmetry.
 E= -464.018112170065     Delta-E=       -1.600744519459 Rises=F Damp=F
 DIIS: error= 2.23D-02 at cycle  12 NSaved=  12.
 NSaved=12 IEnMin= 6 EnMin= -464.019290622626     IErMin= 8 ErrMin= 1.94D-02
 ErrMax= 2.23D-02  0.00D+00 EMaxC= 1.00D-01 BMatC= 3.94D-02 BMatP= 3.77D-02
 IDIUse=3 WtCom= 8.06D-01 WtEn= 1.94D-01
 Large coefficients: NSaved= 12 BigCof=   67.82 CofMax=   10.00 Det=-1.79D-08
 Inversion failed.  Reducing to 11 matrices.
 Large coefficients: NSaved= 11 BigCof=   82.73 CofMax=   10.00 Det=-2.00D-08
 Inversion failed.  Reducing to 10 matrices.
 Large coefficients: NSaved= 10 BigCof=   80.81 CofMax=   10.00 Det=-2.44D-08
 Inversion failed.  Reducing to  9 matrices.
 Large coefficients: NSaved=  9 BigCof=   89.69 CofMax=   10.00 Det=-2.49D-08
 Inversion failed.  Reducing to  8 matrices.
 Large coefficients: NSaved=  8 BigCof=  107.52 CofMax=   10.00 Det=-3.89D-08
 Inversion failed.  Reducing to  7 matrices.
 Large coefficients: NSaved=  7 BigCof=  110.61 CofMax=   10.00 Det=-3.90D-08
 Inversion failed.  Reducing to  6 matrices.
 Large coefficients: NSaved=  6 BigCof=  151.71 CofMax=   10.00 Det=-5.79D-08
 Inversion failed.  Reducing to  5 matrices.
 Large coefficients: NSaved=  5 BigCof=  226.54 CofMax=   10.00 Det=-6.47D-08
 Inversion failed.  Reducing to  4 matrices.
 Large coefficients: NSaved=  4 BigCof=   63.88 CofMax=   10.00 Det=-1.84D-06
 Inversion failed.  Reducing to  3 matrices.
 Coeff-Com:  0.896D-01 0.125D+00 0.786D+00
 Coeff-En:   0.000D+00 0.151D+00 0.849D+00
 Coeff:      0.722D-01 0.130D+00 0.798D+00
 Gap=     0.002 Goal=   None    Shift=    0.000
 RMSDP=6.02D-02 MaxDP=1.64D+00 DE=-1.60D+00 OVMax= 2.54D-02

 Cycle  13  Pass 1  IDiag  1:
 Density matrix breaks symmetry, PCut= 1.00D-04
 Density has only Abelian symmetry.
 E= -462.478624007475     Delta-E=        1.539488162590 Rises=F Damp=F
 DIIS: error= 1.36D-01 at cycle  13 NSaved=   4.
 NSaved= 4 IEnMin= 1 EnMin= -464.019290622626     IErMin= 3 ErrMin= 2.23D-02
 ErrMax= 1.36D-01  0.00D+00 EMaxC= 1.00D-01 BMatC= 1.32D+00 BMatP= 3.94D-02
 IDIUse=2 WtCom= 0.00D+00 WtEn= 1.00D+00
 Coeff-En:   0.000D+00 0.000D+00 0.846D+00 0.154D+00
 Coeff:      0.000D+00 0.000D+00 0.846D+00 0.154D+00
 Gap=     0.010 Goal=   None    Shift=    0.000
 RMSDP=6.02D-02 MaxDP=1.64D+00 DE= 1.54D+00 OVMax= 4.95D-03

 Cycle  14  Pass 1  IDiag  1:
 Density matrix breaks symmetry, PCut= 1.00D-04
 Density has only Abelian symmetry.
 E= -464.017679627639     Delta-E=       -1.539055620164 Rises=F Damp=F
 DIIS: error= 2.27D-02 at cycle  14 NSaved=   5.
 NSaved= 5 IEnMin= 1 EnMin= -464.019290622626     IErMin= 3 ErrMin= 2.23D-02
 ErrMax= 2.27D-02  0.00D+00 EMaxC= 1.00D-01 BMatC= 4.00D-02 BMatP= 3.94D-02
 IDIUse=3 WtCom= 8.06D-01 WtEn= 1.94D-01
 Large coefficients: NSaved=  5 BigCof=  126.41 CofMax=   10.00 Det=-6.59D-07
 Inversion failed.  Reducing to  4 matrices.
 Large coefficients: NSaved=  4 BigCof=  126.31 CofMax=   10.00 Det=-6.89D-07
 Inversion failed.  Reducing to  3 matrices.
 Coeff-Com:  0.637D-01 0.129D+00 0.807D+00
 Coeff-En:   0.000D+00 0.154D+00 0.846D+00
 Coeff:      0.514D-01 0.134D+00 0.814D+00
 Gap=     0.002 Goal=   None    Shift=    0.000
 RMSDP=6.01D-02 MaxDP=1.64D+00 DE=-1.54D+00 OVMax= 2.20D-02

 Cycle  15  Pass 1  IDiag  1:
 Density matrix breaks symmetry, PCut= 1.00D-04
 Density has only Abelian symmetry.
 E= -462.489825691813     Delta-E=        1.527853935826 Rises=F Damp=F
 DIIS: error= 1.35D-01 at cycle  15 NSaved=   4.
 NSaved= 4 IEnMin= 1 EnMin= -464.019290622626     IErMin= 3 ErrMin= 2.27D-02
 ErrMax= 1.35D-01  0.00D+00 EMaxC= 1.00D-01 BMatC= 1.30D+00 BMatP= 4.00D-02
 IDIUse=2 WtCom= 0.00D+00 WtEn= 1.00D+00
 Coeff-En:   0.000D+00 0.000D+00 0.845D+00 0.155D+00
 Coeff:      0.000D+00 0.000D+00 0.845D+00 0.155D+00
 Gap=     0.010 Goal=   None    Shift=    0.000
 RMSDP=6.01D-02 MaxDP=1.64D+00 DE= 1.53D+00 OVMax= 4.43D-03

 Cycle  16  Pass 1  IDiag  1:
 Density matrix breaks symmetry, PCut= 1.00D-04
 Density has only Abelian symmetry.
 E= -464.017594874998     Delta-E=       -1.527769183185 Rises=F Damp=F
 DIIS: error= 2.26D-02 at cycle  16 NSaved=   5.
 NSaved= 5 IEnMin= 1 EnMin= -464.019290622626     IErMin= 5 ErrMin= 2.26D-02
 ErrMax= 2.26D-02  0.00D+00 EMaxC= 1.00D-01 BMatC= 4.00D-02 BMatP= 4.00D-02
 IDIUse=3 WtCom= 8.06D-01 WtEn= 1.94D-01
 Large coefficients: NSaved=  5 BigCof=   99.35 CofMax=   10.00 Det=-4.12D-08
 Inversion failed.  Reducing to  4 matrices.
 Large coefficients: NSaved=  4 BigCof=   67.62 CofMax=   10.00 Det=-4.73D-08
 Inversion failed.  Reducing to  3 matrices.
 Coeff-Com:  0.971D-01 0.130D+00 0.773D+00
 Coeff-En:   0.000D+00 0.155D+00 0.845D+00
 Coeff:      0.783D-01 0.135D+00 0.787D+00
 Gap=     0.002 Goal=   None    Shift=    0.000
 RMSDP=6.01D-02 MaxDP=1.63D+00 DE=-1.53D+00 OVMax= 2.23D-02

 Cycle  17  Pass 1  IDiag  1:
 Density matrix breaks symmetry, PCut= 1.00D-04
 Density has only Abelian symmetry.
 E= -462.490965854476     Delta-E=        1.526629020523 Rises=F Damp=F
 DIIS: error= 1.35D-01 at cycle  17 NSaved=   4.
 NSaved= 4 IEnMin= 1 EnMin= -464.019290622626     IErMin= 3 ErrMin= 2.26D-02
 ErrMax= 1.35D-01  0.00D+00 EMaxC= 1.00D-01 BMatC= 1.30D+00 BMatP= 4.00D-02
 IDIUse=2 WtCom= 0.00D+00 WtEn= 1.00D+00
 Coeff-En:   0.000D+00 0.000D+00 0.845D+00 0.155D+00
 Coeff:      0.000D+00 0.000D+00 0.845D+00 0.155D+00
 Gap=     0.010 Goal=   None    Shift=    0.000
 RMSDP=6.01D-02 MaxDP=1.63D+00 DE= 1.53D+00 OVMax= 4.40D-03

 Cycle  18  Pass 1  IDiag  1:
 Density matrix breaks symmetry, PCut= 1.00D-04
 Density has only Abelian symmetry.
 E= -464.017551413875     Delta-E=       -1.526585559399 Rises=F Damp=F
 DIIS: error= 2.27D-02 at cycle  18 NSaved=   5.
 NSaved= 5 IEnMin= 1 EnMin= -464.019290622626     IErMin= 3 ErrMin= 2.26D-02
 ErrMax= 2.27D-02  0.00D+00 EMaxC= 1.00D-01 BMatC= 4.01D-02 BMatP= 4.00D-02
 IDIUse=3 WtCom= 8.06D-01 WtEn= 1.94D-01
 Large coefficients: NSaved=  5 BigCof=  438.84 CofMax=   10.00 Det=-2.39D-08
 Inversion failed.  Reducing to  4 matrices.
 Large coefficients: NSaved=  4 BigCof=  508.81 CofMax=   10.00 Det=-3.03D-08
 Inversion failed.  Reducing to  3 matrices.
 Coeff-Com:  0.970D-01 0.130D+00 0.773D+00
 Coeff-En:   0.000D+00 0.155D+00 0.845D+00
 Coeff:      0.782D-01 0.135D+00 0.787D+00
 Gap=     0.002 Goal=   None    Shift=    0.000
 RMSDP=6.01D-02 MaxDP=1.63D+00 DE=-1.53D+00 OVMax= 2.20D-02

 Cycle  19  Pass 1  IDiag  1:
 Density matrix breaks symmetry, PCut= 1.00D-04
 Density has only Abelian symmetry.
 E= -462.491489607512     Delta-E=        1.526061806363 Rises=F Damp=F
 DIIS: error= 1.35D-01 at cycle  19 NSaved=   4.
 NSaved= 4 IEnMin= 1 EnMin= -464.019290622626     IErMin= 3 ErrMin= 2.27D-02
 ErrMax= 1.35D-01  0.00D+00 EMaxC= 1.00D-01 BMatC= 1.30D+00 BMatP= 4.01D-02
 IDIUse=2 WtCom= 0.00D+00 WtEn= 1.00D+00
 Coeff-En:   0.000D+00 0.000D+00 0.845D+00 0.155D+00
 Coeff:      0.000D+00 0.000D+00 0.845D+00 0.155D+00
 Gap=     0.010 Goal=   None    Shift=    0.000
 RMSDP=6.01D-02 MaxDP=1.63D+00 DE= 1.53D+00 OVMax= 4.37D-03

 Cycle  20  Pass 1  IDiag  1:
 Density matrix breaks symmetry, PCut= 1.00D-04
 Density has only Abelian symmetry.
 E= -464.017551697538     Delta-E=       -1.526062090026 Rises=F Damp=F
 DIIS: error= 2.26D-02 at cycle  20 NSaved=   5.
 NSaved= 5 IEnMin= 1 EnMin= -464.019290622626     IErMin= 5 ErrMin= 2.26D-02
 ErrMax= 2.26D-02  0.00D+00 EMaxC= 1.00D-01 BMatC= 4.01D-02 BMatP= 4.01D-02
 IDIUse=3 WtCom= 8.06D-01 WtEn= 1.94D-01
 Large coefficients: NSaved=  5 BigCof=  693.68 CofMax=   10.00 Det=-9.61D-09
 Inversion failed.  Reducing to  4 matrices.
 Large coefficients: NSaved=  4 BigCof=  706.27 CofMax=   10.00 Det=-9.61D-09
 Inversion failed.  Reducing to  3 matrices.
 Coeff-Com:  0.103D+00 0.130D+00 0.767D+00
 Coeff-En:   0.000D+00 0.155D+00 0.845D+00
 Coeff:      0.832D-01 0.135D+00 0.782D+00
 Gap=     0.002 Goal=   None    Shift=    0.000
 RMSDP=6.01D-02 MaxDP=1.63D+00 DE=-1.53D+00 OVMax= 2.22D-02

 >>>>>>>>>> Convergence criterion not met.
 SCF Done:  E(RPBE1PBE) =  -464.017551698     A.U. after   21 cycles
            NFock= 20  Conv=0.60D-01     -V/T= 2.1453
 KE= 4.051434381164D+02 PE=-1.986317977822D+03 EE= 6.879143560931D+02
 Leave Link  502 at Sat Oct 18 14:07:07 2025, MaxMem=  4294967296 cpu:               3.4 elap:               0.4
 (Enter /opt/modules/software/gaussian/G16-C01/l508.exe)
 Keep R1 ints in memory in symmetry-blocked form, NReq=8551916.
 FoFCou: FMM=F IPFlag=           0 FMFlag=           0 FMFlg1=           0
         NFxFlg=           0 DoJE=F BraDBF=F KetDBF=F FulRan=T
         wScrn=  0.000000 ICntrl=       600 IOpCl=  0 I1Cent=           0 NGrid=           0
         NMat0=    1 NMatS0=   1711 NMatT0=    0 NMatD0=    1 NMtDS0=    0 NMtDT0=    0
 Petite list used in FoFCou.
 Tight linear equation convergence will be used.
 RPBE1PBE wavefunction.
 Quadratic Convergence SCF Method.
 Line search only if initial step raises energy.
 Density matrix breaks symmetry, PCut= 1.00D-04
 Density has only Abelian symmetry.
 Iteration   1 EE= -462.491336228701                                    Grad=1.613D+00 Max rot=   20.7814 deg.
 Gradient too large for Newton-Raphson -- use scaled steepest descent instead.
 Alpha Gap=     0.015 HL deriv= 7.63D-15
     ILin= 1 X=0.000D+00 Y=-4.624913362287D+02 DE= 0.00D+00 F= -3.90D+00
     ILin= 2 X=3.000D-01 Y=-4.632779297560D+02 DE=-7.87D-01 F= -1.31D+00 OKLS=F
     ILin= 3 X=4.000D-01 Y=-4.633648225084D+02 DE=-8.73D-01 F= -4.30D-01
     ILin= 4 X=6.000D-01 Y=-4.632801025815D+02 DE=-7.89D-01 F=  1.25D+00
     An  expanding polynomial of degree  4 produced  0.4505
 Density matrix breaks symmetry, PCut= 1.00D-04
 Density has only Abelian symmetry.
 Iteration   2 EE= -463.375465119070     Delta-E=       -0.884128890369 Grad=2.744D-01 Max rot=    3.8089 deg.
 Gradient too large for Newton-Raphson -- use scaled steepest descent instead.
 Alpha Gap=     0.040 HL deriv= 9.76D-15
     ILin= 1 X=0.000D+00 Y=-4.633754651191D+02 DE= 0.00D+00 F= -1.98D-01
     ILin= 2 X=4.000D-01 Y=-4.634344081215D+02 DE=-5.89D-02 F= -9.12D-02 OKLS=F
     ILin= 3 X=5.000D-01 Y=-4.634419319705D+02 DE=-6.65D-02 F= -5.89D-02
     ILin= 4 X=7.000D-01 Y=-4.634466713659D+02 DE=-7.12D-02 F=  1.31D-02
     Accept linear search using points  3 and  4.
     An  expanding polynomial of degree  4 produced  0.5859
 Density matrix breaks symmetry, PCut= 1.00D-04
 Density has only Abelian symmetry.
 Iteration   3 EE= -463.445727153320     Delta-E=       -0.070262034249 Grad=1.081D-01 Max rot=    1.8434 deg.
 Gradient too large for Newton-Raphson -- use scaled steepest descent instead.
 Alpha Gap=     0.044 HL deriv= 1.07D-14
     ILin= 1 X=0.000D+00 Y=-4.634457271533D+02 DE= 0.00D+00 F= -2.50D-02
     ILin= 2 X=5.000D-01 Y=-4.634558642939D+02 DE=-1.01D-02 F= -1.56D-02 OKLS=F
     ILin= 3 X=9.000D-01 Y=-4.634605525887D+02 DE=-1.48D-02 F= -7.86D-03
     ILin= 4 X=1.700D+00 Y=-4.634605085350D+02 DE=-1.48D-02 F=  8.09D-03
     An  expanding polynomial of degree  4 produced  1.2987
 Density matrix breaks symmetry, PCut= 1.00D-04
 Density has only Abelian symmetry.
 Iteration   4 EE= -463.462125389468     Delta-E=       -0.016398236148 Grad=3.372D-02 Max rot=    0.3311 deg.
 Gradient too large for Newton-Raphson -- use scaled steepest descent instead.
 Alpha Gap=     0.044 HL deriv= 1.25D-14
     ILin= 1 X=0.000D+00 Y=-4.634621253895D+02 DE= 0.00D+00 F= -2.22D-03
     ILin= 2 X=9.000D-01 Y=-4.634628890079D+02 DE=-7.64D-04 F=  5.32D-04 OKLS=T
     Accept linear search using points  1 and  2.
     An  expanding polynomial of degree  2 produced  0.6990
 Density matrix breaks symmetry, PCut= 1.00D-04
 Density has only Abelian symmetry.
 Iteration   5 EE= -463.462933742496     Delta-E=       -0.000808353029 Grad=1.330D-02 Max rot=    0.1491 deg.
 Gradient too large for Newton-Raphson -- use scaled steepest descent instead.
 Alpha Gap=     0.043 HL deriv= 1.01D-14
     ILin= 1 X=0.000D+00 Y=-4.634629337425D+02 DE= 0.00D+00 F= -3.20D-04
     ILin= 2 X=1.000D+00 Y=-4.634630608601D+02 DE=-1.27D-04 F=  6.63D-05 OKLS=T
     Accept linear search using points  1 and  2.
     An  expanding polynomial of degree  2 produced  0.8286
 Density matrix breaks symmetry, PCut= 1.00D-04
 Density has only Abelian symmetry.
 Iteration   6 EE= -463.463066544617     Delta-E=       -0.000132802121 Grad=8.872D-03 Max rot=    0.1304 deg.
 QCNR:  CnvC1=4.08D-09 CnvC2=4.08D-08
 LinEq1:  Iter=  0 NonCon=     1 RMS=2.78D-04 Max=3.59D-03 NDo=     1
 AX will form     1 AO Fock derivatives at one time.
 LinEq1:  Iter=  1 NonCon=     1 RMS=2.59D-04 Max=3.05D-03 NDo=     1
 LinEq1:  Iter=  2 NonCon=     1 RMS=5.69D-04 Max=1.09D-02 NDo=     1
 LinEq1:  Iter=  3 NonCon=     1 RMS=2.30D-04 Max=3.40D-03 NDo=     1
 LinEq1:  Iter=  4 NonCon=     1 RMS=4.62D-05 Max=5.87D-04 NDo=     1
 LinEq1:  Iter=  5 NonCon=     1 RMS=4.85D-06 Max=5.23D-05 NDo=     1
 LinEq1:  Iter=  6 NonCon=     1 RMS=3.02D-07 Max=4.50D-06 NDo=     1
 LinEq1:  Iter=  7 NonCon=     1 RMS=2.79D-08 Max=3.17D-07 NDo=     1
 LinEq1:  Iter=  8 NonCon=     0 RMS=1.10D-09 Max=1.12D-08 NDo=     1
 Linear equations converged to 4.079D-09 4.079D-08 after     8 iterations.
 Angle between quadratic step and gradient=  70.60 degrees.
     ILin= 1 X=0.000D+00 Y=-4.634630665446D+02 DE= 0.00D+00 F= -1.04D-04
     ILin= 2 X=1.000D+00 Y=-4.634631188291D+02 DE=-5.23D-05 F= -4.10D-07 OKLS=T
     Reject lnstep IMin12=  1  2 Big=T Turn=F Min= 1.004D+00 FVal=-4.634631188299D+02 Lims=  0.00D+00  1.00D+00
     ILin= 3 X=2.000D+00 Y=-4.634630676292D+02 DE=-1.08D-06 F=  1.03D-04
     An  expanding polynomial of degree  3 produced  1.0052
     Minimum is close to point  2 DX=  5.24D-03 DF= -1.42D-09 DXR=  5.21D-03 DFR=  2.72D-05 which will be used.
 Density matrix breaks symmetry, PCut= 1.00D-04
 Density has only Abelian symmetry.
 Iteration   7 EE= -463.463118829116     Delta-E=       -0.000052284499 Grad=8.271D-05 Max rot=    0.0012 deg.
 QCNR:  CnvC1=8.27D-10 CnvC2=8.27D-09
 LinEq1:  Iter=  0 NonCon=     1 RMS=5.81D-06 Max=8.52D-05 NDo=     1
 LinEq1:  Iter=  1 NonCon=     1 RMS=7.87D-06 Max=2.08D-04 NDo=     1
 LinEq1:  Iter=  2 NonCon=     1 RMS=1.49D-06 Max=1.41D-05 NDo=     1
 LinEq1:  Iter=  3 NonCon=     1 RMS=8.52D-07 Max=1.16D-05 NDo=     1
 LinEq1:  Iter=  4 NonCon=     1 RMS=1.23D-07 Max=1.51D-06 NDo=     1
 LinEq1:  Iter=  5 NonCon=     1 RMS=1.04D-08 Max=1.22D-07 NDo=     1
 LinEq1:  Iter=  6 NonCon=     1 RMS=1.41D-09 Max=1.23D-08 NDo=     1
 LinEq1:  Iter=  7 NonCon=     0 RMS=1.04D-10 Max=1.03D-09 NDo=     1
 Linear equations converged to 8.271D-10 8.271D-09 after     7 iterations.
 Angle between quadratic step and gradient=  75.66 degrees.
     ILin= 1 X=0.000D+00 Y=-4.634631188291D+02 DE= 0.00D+00 F= -1.01D-08
     ILin= 2 X=1.000D+00 Y=-4.634631188341D+02 DE=-5.03D-09
 Density matrix breaks symmetry, PCut= 1.00D-04
 Density has only Abelian symmetry.
 Iteration   8 EE= -463.463118834143     Delta-E=       -0.000000005027 Grad=1.638D-08 Max rot=    0.0000 deg.
 Rotation gradient small -- convergence achieved.
 Orbital symmetries in SymMO:
    1=1    2=2    3=3    4=4    5=1    6=4    7=3    8=2    9=2   10=3
   11=4   12=1   13=1   14=1   15=4   16=2   17=3   18=3   19=2   20=4
   21=3   22=2   23=4   24=1   25=3   26=2   27=1   28=1   29=4   30=1
   31=2   32=3   33=4   34=4   35=3   36=2   37=1   38=1   39=2   40=3
   41=4   42=1   43=2   44=3   45=4   46=3   47=2   48=4   49=4   50=3
   51=2   52=1   53=1   54=1   55=3   56=2   57=4   58=1
 SCF Done:  E(RPBE1PBE) =  -463.463118834     a.u. after    8 cycles
            Convg  =    0.1638D-07                    35 Fock formations.
              S**2 =  0.0000                  -V/T =  2.0977
 Density matrix breaks symmetry, PCut= 1.00D-04
 Density has only Abelian symmetry.
 Leave Link  508 at Sat Oct 18 14:07:09 2025, MaxMem=  4294967296 cpu:              14.9 elap:               1.9
 (Enter /opt/modules/software/gaussian/G16-C01/l601.exe)
 Copying SCF densities to generalized density rwf, IOpCl= 0 IROHF=0.
 SCF density gives NOpUse=  4 NOpAll= 24.
 Marking SCF density as not fully symmetric.

 **********************************************************************

            Population analysis using the SCF Density.

 **********************************************************************

 Orbital symmetries:
       Occupied  (A1) (T2) (T2) (T2) (A1) (T2) (T2) (T2) (T2) (T2)
                 (T2) (T2) (T2) (T2) (?A) (?A) (?A) (?A) (?A) (?A)
                 (?A) (?A) (?A) (T2) (?B) (?B)
       Virtual   (T2) (T2) (?B) (?C) (?B) (?B) (?B) (?B) (?B) (?B)
                 (?C) (?C) (?B) (?B) (?B) (T2) (?B) (?B) (?B) (?B)
                 (?B) (?B) (?B) (?B) (?B) (?C) (T2) (T2) (T2) (T2)
                 (T2) (A1)
 Unable to determine electronic state:  an orbital has unidentified symmetry.
 Alpha  occ. eigenvalues --  -19.36008 -19.36004 -19.36004 -19.36003  -5.02104
 Alpha  occ. eigenvalues --   -3.64988  -3.64969  -3.64969  -1.47550  -1.47550
 Alpha  occ. eigenvalues --   -1.47319  -1.29940  -1.29798  -1.14325  -0.83865
 Alpha  occ. eigenvalues --   -0.83441  -0.83441  -0.45228  -0.45228  -0.44833
 Alpha  occ. eigenvalues --   -0.38460  -0.38460  -0.38392  -0.28700   0.14451
 Alpha  occ. eigenvalues --    0.14451
 Alpha virt. eigenvalues --   -0.15890  -0.15647   0.17144   0.19724   0.26087
 Alpha virt. eigenvalues --    0.26087   0.26664   0.37594   0.38355   0.38355
 Alpha virt. eigenvalues --    0.63131   0.63771   0.75644   0.75644   0.75843
 Alpha virt. eigenvalues --    0.77200   0.82964   0.82964   0.83364   0.85648
 Alpha virt. eigenvalues --    0.85648   0.85689   1.00662   1.01453   1.01453
 Alpha virt. eigenvalues --    1.10971   1.29834   1.30482   1.63680   1.63680
 Alpha virt. eigenvalues --    1.63696  19.40185
          Condensed to atoms (all electrons):
               1          2          3          4          5
     1  Ni  20.888420  -0.069470  -0.069470  -0.069470  -0.069470
     2  O   -0.069470   9.096821  -0.284554  -0.284554  -0.610878
     3  O   -0.069470  -0.284554   9.096821  -0.610878  -0.284554
     4  O   -0.069470  -0.284554  -0.610878   9.096821  -0.284554
     5  O   -0.069470  -0.610878  -0.284554  -0.284554   9.096821
 Mulliken charges:
               1
     1  Ni  -2.610540
     2  O    0.152635
     3  O    0.152635
     4  O    0.152635
     5  O    0.152635
 Sum of Mulliken charges =  -2.00000
 Mulliken charges with hydrogens summed into heavy atoms:
               1
     1  Ni  -2.610540
     2  O    0.152635
     3  O    0.152635
     4  O    0.152635
     5  O    0.152635
 Electronic spatial extent (au):  <R**2>=            365.9386
 Charge=             -2.0000 electrons
 Dipole moment (field-independent basis, Debye):
    X=              0.0000    Y=             -0.0000    Z=              0.0000  Tot=              0.0000
 Quadrupole moment (field-independent basis, Debye-Ang):
   XX=            -79.5697   YY=           -129.4639   ZZ=           -129.4639
   XY=              0.0000   XZ=              0.0000   YZ=             -0.0000
 Traceless Quadrupole moment (field-independent basis, Debye-Ang):
   XX=             33.2628   YY=            -16.6314   ZZ=            -16.6314
   XY=              0.0000   XZ=              0.0000   YZ=             -0.0000
 Octapole moment (field-independent basis, Debye-Ang**2):
  XXX=              0.0000  YYY=              0.0000  ZZZ=              0.0000  XYY=             -0.0000
  XXY=              0.0000  XXZ=             -0.0000  XZZ=              0.0000  YZZ=              0.0000
  YYZ=              0.0000  XYZ=             -3.8543
 Hexadecapole moment (field-independent basis, Debye-Ang**3):
 XXXX=           -510.6815 YYYY=          -1405.6440 ZZZZ=          -1405.6440 XXXY=              0.0000
 XXXZ=              0.0000 YYYX=              0.0000 YYYZ=             -0.0000 ZZZX=              0.0000
 ZZZY=             -0.0000 XXYY=           -321.7509 XXZZ=           -321.7509 YYZZ=           -471.2283
 XXYZ=             -0.0000 YYXZ=              0.0000 ZZXY=              0.0000
 N-N= 4.292426319152D+02 E-N=-1.966066083259D+03  KE= 4.222161184808D+02
 Symmetry A    KE= 1.056936153348D+02
 Symmetry B1   KE= 1.062440034951D+02
 Symmetry B2   KE= 1.062440034951D+02
 Symmetry B3   KE= 1.040344961558D+02
 No NMR shielding tensors so no spin-rotation constants.
 Leave Link  601 at Sat Oct 18 14:07:09 2025, MaxMem=  4294967296 cpu:               0.4 elap:               0.1
 (Enter /opt/modules/software/gaussian/G16-C01/l108.exe)
 Variable Step   Value    
 -------- ---- -----------
     1       1    1.984212
 Leave Link  108 at Sat Oct 18 14:07:09 2025, MaxMem=  4294967296 cpu:               0.0 elap:               0.0
 (Enter /opt/modules/software/gaussian/G16-C01/l202.exe)
 ---------------------------------------------------------------------------------------------------
                            Z-MATRIX (ANGSTROMS AND DEGREES)
   CD    Cent   Atom    N1       Length/X        N2       Alpha/Y        N3        Beta/Z          J
 ---------------------------------------------------------------------------------------------------
      1      1  Ni
      2      2  O        1   1.050000(     1)
      3      3  O        1   1.050000(     2)      2  109.471(     5)
      4      4  O        1   1.050000(     3)      3  109.471(     6)      2 -120.000(     8)      0
      5      5  O        1   1.050000(     4)      4  109.471(     7)      3  120.000(     9)      0
 ---------------------------------------------------------------------------------------------------
                         Z-Matrix orientation:                         
 ---------------------------------------------------------------------
 Center     Atomic      Atomic             Coordinates (Angstroms)
 Number     Number       Type             X           Y           Z
 ---------------------------------------------------------------------
      1         28           0        0.000000    0.000000    0.000000
      2          8           0        0.000000    0.000000    1.050000
      3          8           0        0.989949    0.000000   -0.350000
      4          8           0       -0.494975   -0.857321   -0.350000
      5          8           0       -0.494975    0.857321   -0.350000
 ---------------------------------------------------------------------
                    Distance matrix (angstroms):
                    1          2          3          4          5
     1  Ni   0.000000
     2  O    1.050000   0.000000
     3  O    1.050000   1.714643   0.000000
     4  O    1.050000   1.714643   1.714643   0.000000
     5  O    1.050000   1.714643   1.714643   1.714643   0.000000
 Stoichiometry    NiO4(2-)
 Framework group  TD[O(Ni),4C3(O)]
 Deg. of freedom     1
 Full point group                 TD      NOp  24
 RotChk:  IX=0 Diff= 6.72D-16
 Largest Abelian subgroup         D2      NOp   4
 Largest concise Abelian subgroup D2      NOp   4
                         Standard orientation:                         
 ---------------------------------------------------------------------
 Center     Atomic      Atomic             Coordinates (Angstroms)
 Number     Number       Type             X           Y           Z
 ---------------------------------------------------------------------
      1         28           0        0.000000    0.000000    0.000000
      2          8           0        0.606218    0.606218    0.606218
      3          8           0       -0.606218   -0.606218    0.606218
      4          8           0       -0.606218    0.606218   -0.606218
      5          8           0        0.606218   -0.606218   -0.606218
 ---------------------------------------------------------------------
 Rotational constants (GHZ):          10.7470172          10.7470172          10.7470172
 Leave Link  202 at Sat Oct 18 14:07:09 2025, MaxMem=  4294967296 cpu:               0.0 elap:               0.0
 (Enter /opt/modules/software/gaussian/G16-C01/l301.exe)
 Basis read from rwf:  (5D, 7F)
 Pseudo-potential data read from rwf file.
 There are    18 symmetry adapted cartesian basis functions of A   symmetry.
 There are    14 symmetry adapted cartesian basis functions of B1  symmetry.
 There are    14 symmetry adapted cartesian basis functions of B2  symmetry.
 There are    14 symmetry adapted cartesian basis functions of B3  symmetry.
 There are    16 symmetry adapted basis functions of A   symmetry.
 There are    14 symmetry adapted basis functions of B1  symmetry.
 There are    14 symmetry adapted basis functions of B2  symmetry.
 There are    14 symmetry adapted basis functions of B3  symmetry.
    58 basis functions,   152 primitive gaussians,    60 cartesian basis functions
    26 alpha electrons       26 beta electrons
       nuclear repulsion energy       408.8025065859 Hartrees.
 IExCor= 1009 DFT=T Ex+Corr=PBE1PBE ExCW=0 ScaHFX=  0.250000
 ScaDFX=  0.750000  0.750000  1.000000  1.000000 ScalE2=  1.000000  1.000000
 IRadAn=      5 IRanWt=     -1 IRanGd=            0 ICorTp=0 IEmpDi=  4
 NAtoms=    5 NActive=    5 NUniq=    2 SFac= 4.00D+00 NAtFMM=   60 NAOKFM=F Big=F
 Integral buffers will be    131072 words long.
 Raffenetti 2 integral format.
 Two-electron integral symmetry is turned on.
 No density basis found on file    724.
 Leave Link  301 at Sat Oct 18 14:07:09 2025, MaxMem=  4294967296 cpu:               0.2 elap:               0.0
 (Enter /opt/modules/software/gaussian/G16-C01/l302.exe)
 NPDir=0 NMtPBC=     1 NCelOv=     1 NCel=       1 NClECP=     1 NCelD=      1
         NCelK=      1 NCelE2=     1 NClLst=     1 CellRange=     0.0.
 One-electron integrals computed using PRISM.
 One-electron integral symmetry used in STVInt
  24 Symmetry operations used in ECPInt.
 ECPInt:  NShTT=     406 NPrTT=    3130 LenC2=     407 LenP2D=    2658.
 LDataN:  DoStor=T MaxTD1= 4 Len=   56
 NBasis=    58 RedAO= T EigKep=  1.39D-02  NBF=    16    14    14    14
 NBsUse=    58 1.00D-06 EigRej= -1.00D+00 NBFU=    16    14    14    14
 Precomputing XC quadrature grid using
 IXCGrd= 4 IRadAn=           5 IRanWt=          -1 IRanGd=           0 AccXCQ= 0.00D+00.
 Generated NRdTot=       0 NPtTot=           0 NUsed=           0 NTot=          32
 NSgBfM=    60    60    60    60    60 MxSgAt=     5 MxSgA2=     5.
 Leave Link  302 at Sat Oct 18 14:07:09 2025, MaxMem=  4294967296 cpu:               0.6 elap:               0.1
 (Enter /opt/modules/software/gaussian/G16-C01/l303.exe)
 DipDrv:  MaxL=1.
 Leave Link  303 at Sat Oct 18 14:07:09 2025, MaxMem=  4294967296 cpu:               0.1 elap:               0.0
 (Enter /opt/modules/software/gaussian/G16-C01/l401.exe)
 Initial guess from the checkpoint file:  "/home/futera/Documents/2025-nife2o4-params/bond-parameters/pbe0-lanl2dz/Gau-3739868.chk"
 B after Tr=    -0.000000   -0.000000   -0.000000
         Rot=    1.000000    0.000000   -0.000000    0.000000 Ang=   0.00 deg.
 Guess basis will be translated and rotated to current coordinates.
 JPrj=2 DoOrth=T DoCkMO=T.
 Initial guess orbital symmetries:
       Occupied  (A1) (T2) (T2) (T2) (A1) (T2) (T2) (T2) (?A) (?A)
                 (?A) (T2) (T2) (T2) (?A) (?A) (?A) (?A) (?A) (?A)
                 (?A) (?A) (?A) (T2) (?A) (?A)
       Virtual   (T2) (T2) (?A) (?B) (?A) (?A) (?A) (?A) (?A) (?A)
                 (?B) (?B) (?A) (?A) (?A) (T2) (?A) (?A) (?A) (?A)
                 (?A) (?A) (?A) (?A) (?A) (?B) (T2) (T2) (T2) (T2)
                 (T2) (A1)
 Generating alternative initial guess.
 ExpMin= 2.40D-02 ExpMax= 7.82D+03 ExpMxC= 2.73D+02 IAcc=3 IRadAn=         5 AccDes= 0.00D+00
 Harris functional with IExCor= 1009 and IRadAn=       5 diagonalized for initial guess.
 HarFok:  IExCor= 1009 AccDes= 0.00D+00 IRadAn=         5 IDoV= 1 UseB2=F ITyADJ=14
 ICtDFT=  3500011 ScaDFX=  1.000000  1.000000  1.000000  1.000000
 FoFCou: FMM=F IPFlag=           0 FMFlag=      100000 FMFlg1=           0
         NFxFlg=           0 DoJE=T BraDBF=F KetDBF=T FulRan=T
         wScrn=  0.000000 ICntrl=       500 IOpCl=  0 I1Cent=   200000004 NGrid=           0
         NMat0=    1 NMatS0=      1 NMatT0=    0 NMatD0=    1 NMtDS0=    0 NMtDT0=    0
 Petite list used in FoFCou.
 Harris En= -466.707665174686    
 Leave Link  401 at Sat Oct 18 14:07:09 2025, MaxMem=  4294967296 cpu:               0.8 elap:               0.1
 (Enter /opt/modules/software/gaussian/G16-C01/l502.exe)
 Keep R1 ints in memory in symmetry-blocked form, NReq=8551516.
 FoFCou: FMM=F IPFlag=           0 FMFlag=           0 FMFlg1=           0
         NFxFlg=           0 DoJE=F BraDBF=F KetDBF=F FulRan=T
         wScrn=  0.000000 ICntrl=       600 IOpCl=  0 I1Cent=           0 NGrid=           0
         NMat0=    1 NMatS0=   1711 NMatT0=    0 NMatD0=    1 NMtDS0=    0 NMtDT0=    0
 Petite list used in FoFCou.
 Closed shell SCF:
 Using DIIS extrapolation, IDIIS=  1040.
 NGot=  4294967296 LenX=  4294585980 LenY=  4294581939
 Requested convergence on RMS density matrix=1.00D-08 within  20 cycles.
 Requested convergence on MAX density matrix=1.00D-06.
 Requested convergence on             energy=1.00D-06.
 No special actions if energy rises.

 Cycle   1  Pass 1  IDiag  1:
 Density matrix breaks symmetry, PCut= 1.00D-04
 Density has only Abelian symmetry.
 E= -464.772184588675    
 DIIS: error= 8.95D-02 at cycle   1 NSaved=   1.
 NSaved= 1 IEnMin= 1 EnMin= -464.772184588675     IErMin= 1 ErrMin= 8.95D-02
 ErrMax= 8.95D-02  0.00D+00 EMaxC= 1.00D-01 BMatC= 1.09D-01 BMatP= 1.09D-01
 IDIUse=3 WtCom= 1.05D-01 WtEn= 8.95D-01
 Coeff-Com:  0.100D+01
 Coeff-En:   0.100D+01
 Coeff:      0.100D+01
 Recover alternate guess density for next cycle.
 RMSDP=5.32D-02 MaxDP=9.27D-01              OVMax= 0.00D+00

 Cycle   2  Pass 1  IDiag  1:
 E= -464.646465173846     Delta-E=        0.125719414828 Rises=F Damp=F
 Switch densities from cycles 1 and 2 for lowest energy.
 DIIS: error= 8.88D-02 at cycle   2 NSaved=   2.
 NSaved= 2 IEnMin= 1 EnMin= -464.772184588675     IErMin= 2 ErrMin= 8.88D-02
 ErrMax= 8.88D-02  0.00D+00 EMaxC= 1.00D+00 BMatC= 9.38D-01 BMatP= 1.09D-01
 IDIUse=1 WtCom= 1.00D+00 WtEn= 0.00D+00
 Coeff-Com:  0.892D+00 0.108D+00
 Coeff:      0.892D+00 0.108D+00
 Gap=     0.226 Goal=   None    Shift=    0.000
 RMSDP=4.45D-02 MaxDP=9.27D-01 DE= 1.26D-01 OVMax= 2.87D-02

 Cycle   3  Pass 1  IDiag  1:
 Density matrix breaks symmetry, PCut= 1.00D-04
 Density has only Abelian symmetry.
 E= -464.907891334588     Delta-E=       -0.261426160742 Rises=F Damp=F
 DIIS: error= 8.69D-02 at cycle   3 NSaved=   3.
 NSaved= 3 IEnMin= 3 EnMin= -464.907891334588     IErMin= 3 ErrMin= 8.69D-02
 ErrMax= 8.69D-02  0.00D+00 EMaxC= 1.00D+00 BMatC= 5.74D-01 BMatP= 1.09D-01
 IDIUse=1 WtCom= 1.00D+00 WtEn= 0.00D+00
 Coeff-Com:  0.782D+00 0.996D-01 0.119D+00
 Coeff:      0.782D+00 0.996D-01 0.119D+00
 Gap=     0.161 Goal=   None    Shift=    0.000
 RMSDP=4.51D-03 MaxDP=3.84D-02 DE=-2.61D-01 OVMax= 2.57D-02

 Cycle   4  Pass 1  IDiag  1:
 Density matrix breaks symmetry, PCut= 1.00D-04
 Density has only Abelian symmetry.
 E= -465.119471586636     Delta-E=       -0.211580252047 Rises=F Damp=F
 DIIS: error= 6.41D-02 at cycle   4 NSaved=   4.
 NSaved= 4 IEnMin= 4 EnMin= -465.119471586636     IErMin= 4 ErrMin= 6.41D-02
 ErrMax= 6.41D-02  0.00D+00 EMaxC= 1.00D+00 BMatC= 3.10D-01 BMatP= 1.09D-01
 IDIUse=1 WtCom= 1.00D+00 WtEn= 0.00D+00
 Coeff-Com:  0.136D+00-0.560D-01-0.250D+01 0.342D+01
 Coeff:      0.136D+00-0.560D-01-0.250D+01 0.342D+01
 Gap=     0.000 Goal=   None    Shift=    0.000
 RMSDP=6.01D-02 MaxDP=1.64D+00 DE=-2.12D-01 OVMax= 1.67D-01

 Cycle   5  Pass 1  IDiag  1:
 Density matrix breaks symmetry, PCut= 1.00D-04
 Density has only Abelian symmetry.
 E= -463.814147062793     Delta-E=        1.305324523843 Rises=F Damp=F
 DIIS: error= 1.67D-01 at cycle   5 NSaved=   5.
 NSaved= 5 IEnMin= 4 EnMin= -465.119471586636     IErMin= 4 ErrMin= 6.41D-02
 ErrMax= 1.67D-01  0.00D+00 EMaxC= 1.00D+00 BMatC= 1.23D+00 BMatP= 1.09D-01
 IDIUse=1 WtCom= 1.00D+00 WtEn= 0.00D+00
 Coeff-Com:  0.133D+00-0.481D-01-0.209D+01 0.295D+01 0.567D-01
 Coeff:      0.133D+00-0.481D-01-0.209D+01 0.295D+01 0.567D-01
 Gap=     0.015 Goal=   None    Shift=    0.000
 RMSDP=5.97D-02 MaxDP=1.64D+00 DE= 1.31D+00 OVMax= 8.03D-03

 Cycle   6  Pass 1  IDiag  1:
 Density matrix breaks symmetry, PCut= 1.00D-04
 Density has only Abelian symmetry.
 E= -465.348914952271     Delta-E=       -1.534767889478 Rises=F Damp=F
 DIIS: error= 2.74D-02 at cycle   6 NSaved=   6.
 NSaved= 6 IEnMin= 6 EnMin= -465.348914952271     IErMin= 6 ErrMin= 2.74D-02
 ErrMax= 2.74D-02  0.00D+00 EMaxC= 1.00D+00 BMatC= 4.51D-02 BMatP= 1.09D-01
 IDIUse=1 WtCom= 1.00D+00 WtEn= 0.00D+00
 Coeff-Com: -0.128D-01 0.289D-01 0.130D+00-0.755D+00 0.131D-01 0.160D+01
 Coeff:     -0.128D-01 0.289D-01 0.130D+00-0.755D+00 0.131D-01 0.160D+01
 Gap=     0.000 Goal=   None    Shift=    0.000
 RMSDP=6.19D-02 MaxDP=1.67D+00 DE=-1.53D+00 OVMax= 9.25D-02

 Cycle   7  Pass 1  IDiag  1:
 Density matrix breaks symmetry, PCut= 1.00D-04
 Density has only Abelian symmetry.
 E= -463.567084901017     Delta-E=        1.781830051254 Rises=F Damp=F
 DIIS: error= 1.93D-01 at cycle   7 NSaved=   7.
 NSaved= 7 IEnMin= 6 EnMin= -465.348914952271     IErMin= 6 ErrMin= 2.74D-02
 ErrMax= 1.93D-01  0.00D+00 EMaxC= 1.00D+00 BMatC= 1.60D+00 BMatP= 4.51D-02
 IDIUse=1 WtCom= 1.00D+00 WtEn= 0.00D+00
 Coeff-Com: -0.121D-01 0.280D-01 0.117D+00-0.738D+00-0.185D-01 0.160D+01
 Coeff-Com:  0.280D-01
 Coeff:     -0.121D-01 0.280D-01 0.117D+00-0.738D+00-0.185D-01 0.160D+01
 Coeff:      0.280D-01
 Gap=     0.000 Goal=   None    Shift=    0.000
 RMSDP=1.63D-04 MaxDP=4.03D-03 DE= 1.78D+00 OVMax= 2.37D-03

 Cycle   8  Pass 1  IDiag  1:
 Density matrix breaks symmetry, PCut= 1.00D-04
 Density has only Abelian symmetry.
 E= -463.559111070383     Delta-E=        0.007973830634 Rises=F Damp=F
 DIIS: error= 1.94D-01 at cycle   8 NSaved=   8.
 NSaved= 8 IEnMin= 6 EnMin= -465.348914952271     IErMin= 6 ErrMin= 2.74D-02
 ErrMax= 1.94D-01  0.00D+00 EMaxC= 1.00D+00 BMatC= 1.61D+00 BMatP= 4.51D-02
 IDIUse=1 WtCom= 1.00D+00 WtEn= 0.00D+00
 Coeff-Com: -0.123D-01 0.282D-01-0.152D-01-0.552D+00-0.168D-01 0.157D+01
 Coeff-Com: -0.720D+01 0.719D+01
 Coeff:     -0.123D-01 0.282D-01-0.152D-01-0.552D+00-0.168D-01 0.157D+01
 Coeff:     -0.720D+01 0.719D+01
 Gap=     0.000 Goal=   None    Shift=    0.000
 RMSDP=1.38D-03 MaxDP=3.62D-02 DE= 7.97D-03 OVMax= 1.85D-02

 Cycle   9  Pass 1  IDiag  1:
 Density matrix breaks symmetry, PCut= 1.00D-04
 Density has only Abelian symmetry.
 E= -463.483452954931     Delta-E=        0.075658115452 Rises=F Damp=F
 DIIS: error= 2.00D-01 at cycle   9 NSaved=   9.
 NSaved= 9 IEnMin= 6 EnMin= -465.348914952271     IErMin= 6 ErrMin= 2.74D-02
 ErrMax= 2.00D-01  0.00D+00 EMaxC= 1.00D+00 BMatC= 1.72D+00 BMatP= 4.51D-02
 IDIUse=1 WtCom= 1.00D+00 WtEn= 0.00D+00
 Coeff-Com: -0.119D-01 0.276D-01-0.117D+00-0.420D+00-0.127D-01 0.157D+01
 Coeff-Com:  0.174D+01-0.359D+01 0.181D+01
 Coeff:     -0.119D-01 0.276D-01-0.117D+00-0.420D+00-0.127D-01 0.157D+01
 Coeff:      0.174D+01-0.359D+01 0.181D+01
 Gap=     0.000 Goal=   None    Shift=    0.000
 RMSDP=5.67D-02 MaxDP=1.69D+00 DE= 7.57D-02 OVMax= 2.14D-02

 Cycle  10  Pass 1  IDiag  1:
 Density matrix breaks symmetry, PCut= 1.00D-04
 Density has only Abelian symmetry.
 E= -463.394686442830     Delta-E=        0.088766512100 Rises=F Damp=F
 DIIS: error= 2.07D-01 at cycle  10 NSaved=  10.
 NSaved=10 IEnMin= 6 EnMin= -465.348914952271     IErMin= 6 ErrMin= 2.74D-02
 ErrMax= 2.07D-01  0.00D+00 EMaxC= 1.00D+00 BMatC= 1.84D+00 BMatP= 4.51D-02
 IDIUse=1 WtCom= 1.00D+00 WtEn= 0.00D+00
 Coeff-Com: -0.120D-01 0.276D-01-0.117D+00-0.420D+00-0.117D-01 0.157D+01
 Coeff-Com:  0.175D+01-0.361D+01 0.182D+01-0.191D-02
 Coeff:     -0.120D-01 0.276D-01-0.117D+00-0.420D+00-0.117D-01 0.157D+01
 Coeff:      0.175D+01-0.361D+01 0.182D+01-0.191D-02
 Gap=     0.000 Goal=   None    Shift=    0.000
 RMSDP=4.68D-06 MaxDP=8.99D-05 DE= 8.88D-02 OVMax= 7.57D-05

 Cycle  11  Pass 1  IDiag  1:
 Density matrix breaks symmetry, PCut= 1.00D-04
 Density has only Abelian symmetry.
 E= -463.394483634596     Delta-E=        0.000202808234 Rises=F Damp=F
 DIIS: error= 2.07D-01 at cycle  11 NSaved=  11.
 NSaved=11 IEnMin= 6 EnMin= -465.348914952271     IErMin= 6 ErrMin= 2.74D-02
 ErrMax= 2.07D-01  0.00D+00 EMaxC= 1.00D+00 BMatC= 1.84D+00 BMatP= 4.51D-02
 IDIUse=1 WtCom= 1.00D+00 WtEn= 0.00D+00
 Large coefficients: NSaved= 11 BigCof=   15.41 CofMax=   10.00 Det=-4.48D-09
 Inversion failed.  Reducing to 10 matrices.
 Large coefficients: NSaved= 10 BigCof=   49.40 CofMax=   10.00 Det=-4.66D-09
 Inversion failed.  Reducing to  9 matrices.
 Large coefficients: NSaved=  9 BigCof=   79.52 CofMax=   10.00 Det=-4.87D-09
 Inversion failed.  Reducing to  8 matrices.
 Large coefficients: NSaved=  8 BigCof=   79.65 CofMax=   10.00 Det=-4.87D-09
 Inversion failed.  Reducing to  7 matrices.
 Large coefficients: NSaved=  7 BigCof=   82.53 CofMax=   10.00 Det=-4.88D-09
 Inversion failed.  Reducing to  6 matrices.
 Large coefficients: NSaved=  6 BigCof=   89.68 CofMax=   10.00 Det=-4.89D-09
 Inversion failed.  Reducing to  5 matrices.
 Large coefficients: NSaved=  5 BigCof=   89.63 CofMax=   10.00 Det=-4.89D-09
 Inversion failed.  Reducing to  4 matrices.
 Large coefficients: NSaved=  4 BigCof=   54.94 CofMax=   10.00 Det=-5.03D-09
 Inversion failed.  Reducing to  3 matrices.
 Large coefficients: NSaved=  3 BigCof=  255.25 CofMax=   10.00 Det=-5.27D-09
 Inversion failed.  Reducing to  2 matrices.
 Large coefficients: NSaved=  2 BigCof= 8735.73 CofMax=   10.00 Det=-1.68D-08
 Coeff-Com:  0.874D+04-0.873D+04
 Coeff:      0.874D+04-0.873D+04
 Gap=     0.518 Goal=   None    Shift=    0.000
 RMSDP=6.88D-02 MaxDP=1.69D+00 DE= 2.03D-04 OVMax= 1.33D-01

 Cycle  12  Pass 1  IDiag  1:
 Density matrix breaks symmetry, PCut= 1.00D-04
 Density has only Abelian symmetry.
 E= -463.655595964784     Delta-E=       -0.261112330188 Rises=F Damp=F
 DIIS: error= 1.66D-01 at cycle  12 NSaved=   3.
 NSaved= 3 IEnMin= 3 EnMin= -463.655595964784     IErMin= 3 ErrMin= 1.66D-01
 ErrMax= 1.66D-01  0.00D+00 EMaxC= 1.00D+00 BMatC= 2.05D+00 BMatP= 1.84D+00
 IDIUse=1 WtCom= 1.00D+00 WtEn= 0.00D+00
 Large coefficients: NSaved=  3 BigCof= 2978.21 CofMax=   10.00 Det=-7.17D-09
 Inversion failed.  Reducing to  2 matrices.
 Coeff-Com:  0.515D+00 0.485D+00
 Coeff:      0.515D+00 0.485D+00
 Gap=     0.282 Goal=   None    Shift=    0.000
 RMSDP=2.08D-02 MaxDP=1.78D-01 DE=-2.61D-01 OVMax= 1.42D-01

 Cycle  13  Pass 1  IDiag  1:
 Density matrix breaks symmetry, PCut= 1.00D-04
 Density has only Abelian symmetry.
 E= -465.163318533162     Delta-E=       -1.507722568378 Rises=F Damp=F
 DIIS: error= 5.42D-02 at cycle  13 NSaved=   3.
 NSaved= 3 IEnMin= 3 EnMin= -465.163318533162     IErMin= 3 ErrMin= 5.42D-02
 ErrMax= 5.42D-02  0.00D+00 EMaxC= 1.00D+00 BMatC= 2.45D-01 BMatP= 1.84D+00
 IDIUse=1 WtCom= 1.00D+00 WtEn= 0.00D+00
 Coeff-Com:  0.128D+00-0.259D+00 0.113D+01
 Coeff:      0.128D+00-0.259D+00 0.113D+01
 Gap=     0.003 Goal=   None    Shift=    0.000
 RMSDP=6.01D-02 MaxDP=1.64D+00 DE=-1.51D+00 OVMax= 1.87D-01

 Cycle  14  Pass 1  IDiag  1:
 Density matrix breaks symmetry, PCut= 1.00D-04
 Density has only Abelian symmetry.
 E= -463.816531140369     Delta-E=        1.346787392792 Rises=F Damp=F
 DIIS: error= 1.41D-01 at cycle  14 NSaved=   4.
 NSaved= 4 IEnMin= 3 EnMin= -465.163318533162     IErMin= 3 ErrMin= 5.42D-02
 ErrMax= 1.41D-01  0.00D+00 EMaxC= 1.00D+00 BMatC= 1.11D+00 BMatP= 2.45D-01
 IDIUse=1 WtCom= 1.00D+00 WtEn= 0.00D+00
 Coeff-Com: -0.378D+00-0.229D+00 0.981D+00 0.626D+00
 Coeff:     -0.378D+00-0.229D+00 0.981D+00 0.626D+00
 Gap=     0.057 Goal=   None    Shift=    0.000
 RMSDP=5.96D-02 MaxDP=1.64D+00 DE= 1.35D+00 OVMax= 1.77D-02

 Cycle  15  Pass 1  IDiag  1:
 Density matrix breaks symmetry, PCut= 1.00D-04
 Density has only Abelian symmetry.
 E= -465.316107776604     Delta-E=       -1.499576636235 Rises=F Damp=F
 DIIS: error= 3.58D-02 at cycle  15 NSaved=   5.
 NSaved= 5 IEnMin= 5 EnMin= -465.316107776604     IErMin= 5 ErrMin= 3.58D-02
 ErrMax= 3.58D-02  0.00D+00 EMaxC= 1.00D+00 BMatC= 8.14D-02 BMatP= 2.45D-01
 IDIUse=1 WtCom= 1.00D+00 WtEn= 0.00D+00
 Coeff-Com:  0.213D+00-0.699D-01-0.101D+01-0.263D+00 0.213D+01
 Coeff:      0.213D+00-0.699D-01-0.101D+01-0.263D+00 0.213D+01
 Gap=     0.000 Goal=   None    Shift=    0.000
 RMSDP=6.35D-02 MaxDP=1.69D+00 DE=-1.50D+00 OVMax= 1.62D-01

 Cycle  16  Pass 1  IDiag  1:
 Density matrix breaks symmetry, PCut= 1.00D-04
 Density has only Abelian symmetry.
 E= -463.421434101193     Delta-E=        1.894673675411 Rises=F Damp=F
 DIIS: error= 2.06D-01 at cycle  16 NSaved=   6.
 NSaved= 6 IEnMin= 5 EnMin= -465.316107776604     IErMin= 5 ErrMin= 3.58D-02
 ErrMax= 2.06D-01  0.00D+00 EMaxC= 1.00D+00 BMatC= 1.81D+00 BMatP= 8.14D-02
 IDIUse=1 WtCom= 1.00D+00 WtEn= 0.00D+00
 Coeff-Com:  0.234D+00-0.698D-01-0.101D+01-0.267D+00 0.214D+01-0.179D-01
 Coeff:      0.234D+00-0.698D-01-0.101D+01-0.267D+00 0.214D+01-0.179D-01
 Gap=     0.000 Goal=   None    Shift=    0.000
 RMSDP=5.70D-02 MaxDP=1.69D+00 DE= 1.89D+00 OVMax= 1.46D-03

 Cycle  17  Pass 1  IDiag  1:
 Density matrix breaks symmetry, PCut= 1.00D-04
 Density has only Abelian symmetry.
 E= -463.416081148540     Delta-E=        0.005352952653 Rises=F Damp=F
 DIIS: error= 2.07D-01 at cycle  17 NSaved=   7.
 NSaved= 7 IEnMin= 5 EnMin= -465.316107776604     IErMin= 5 ErrMin= 3.58D-02
 ErrMax= 2.07D-01  0.00D+00 EMaxC= 1.00D+00 BMatC= 1.82D+00 BMatP= 8.14D-02
 IDIUse=1 WtCom= 1.00D+00 WtEn= 0.00D+00
 Coeff-Com:  0.240D+00-0.698D-01-0.102D+01-0.269D+00 0.214D+01-0.124D-01
 Coeff-Com: -0.114D-01
 Coeff:      0.240D+00-0.698D-01-0.102D+01-0.269D+00 0.214D+01-0.124D-01
 Coeff:     -0.114D-01
 Gap=     0.000 Goal=   None    Shift=    0.000
 RMSDP=3.59D-05 MaxDP=8.56D-04 DE= 5.35D-03 OVMax= 5.56D-04

 Cycle  18  Pass 1  IDiag  1:
 Density matrix breaks symmetry, PCut= 1.00D-04
 Density has only Abelian symmetry.
 E= -463.414375471850     Delta-E=        0.001705676690 Rises=F Damp=F
 DIIS: error= 2.07D-01 at cycle  18 NSaved=   8.
 NSaved= 8 IEnMin= 5 EnMin= -465.316107776604     IErMin= 5 ErrMin= 3.58D-02
 ErrMax= 2.07D-01  0.00D+00 EMaxC= 1.00D+00 BMatC= 1.82D+00 BMatP= 8.14D-02
 IDIUse=1 WtCom= 1.00D+00 WtEn= 0.00D+00
 Large coefficients: NSaved=  8 BigCof=   18.63 CofMax=   10.00 Det=-2.03D-07
 Inversion failed.  Reducing to  7 matrices.
 Large coefficients: NSaved=  7 BigCof=   19.43 CofMax=   10.00 Det=-2.03D-07
 Inversion failed.  Reducing to  6 matrices.
 Large coefficients: NSaved=  6 BigCof=   19.73 CofMax=   10.00 Det=-2.03D-07
 Inversion failed.  Reducing to  5 matrices.
 Large coefficients: NSaved=  5 BigCof=   13.43 CofMax=   10.00 Det=-2.32D-07
 Inversion failed.  Reducing to  4 matrices.
 Large coefficients: NSaved=  4 BigCof=   24.44 CofMax=   10.00 Det=-2.39D-07
 Inversion failed.  Reducing to  3 matrices.
 Large coefficients: NSaved=  3 BigCof=   63.61 CofMax=   10.00 Det=-2.45D-07
 Inversion failed.  Reducing to  2 matrices.
 Large coefficients: NSaved=  2 BigCof= 1178.97 CofMax=   10.00 Det=-1.00D-06
 Coeff-Com:  0.118D+04-0.118D+04
 Coeff:      0.118D+04-0.118D+04
 Gap=     0.477 Goal=   None    Shift=    0.000
 RMSDP=6.81D-02 MaxDP=1.69D+00 DE= 1.71D-03 OVMax= 1.24D-01

 Cycle  19  Pass 1  IDiag  1:
 Density matrix breaks symmetry, PCut= 1.00D-04
 Density has only Abelian symmetry.
 E= -463.855201925525     Delta-E=       -0.440826453675 Rises=F Damp=F
 DIIS: error= 1.63D-01 at cycle  19 NSaved=   3.
 NSaved= 3 IEnMin= 3 EnMin= -463.855201925525     IErMin= 3 ErrMin= 1.63D-01
 ErrMax= 1.63D-01  0.00D+00 EMaxC= 1.00D+00 BMatC= 1.86D+00 BMatP= 1.82D+00
 IDIUse=1 WtCom= 1.00D+00 WtEn= 0.00D+00
 Large coefficients: NSaved=  3 BigCof=  463.07 CofMax=   10.00 Det=-3.71D-07
 Inversion failed.  Reducing to  2 matrices.
 Coeff-Com:  0.503D+00 0.497D+00
 Coeff:      0.503D+00 0.497D+00
 Gap=     0.274 Goal=   None    Shift=    0.000
 RMSDP=1.95D-02 MaxDP=1.74D-01 DE=-4.41D-01 OVMax= 1.37D-01

 Cycle  20  Pass 1  IDiag  1:
 Density matrix breaks symmetry, PCut= 1.00D-04
 Density has only Abelian symmetry.
 E= -465.165620236262     Delta-E=       -1.310418310737 Rises=F Damp=F
 DIIS: error= 5.14D-02 at cycle  20 NSaved=   3.
 NSaved= 3 IEnMin= 3 EnMin= -465.165620236262     IErMin= 3 ErrMin= 5.14D-02
 ErrMax= 5.14D-02  0.00D+00 EMaxC= 1.00D+00 BMatC= 2.38D-01 BMatP= 1.82D+00
 IDIUse=1 WtCom= 1.00D+00 WtEn= 0.00D+00
 Coeff-Com:  0.159D+00-0.195D+00 0.104D+01
 Coeff:      0.159D+00-0.195D+00 0.104D+01
 Gap=     0.003 Goal=   None    Shift=    0.000
 RMSDP=5.94D-02 MaxDP=1.63D+00 DE=-1.31D+00 OVMax= 1.80D-01

 >>>>>>>>>> Convergence criterion not met.
 SCF Done:  E(RPBE1PBE) =  -465.165620236     A.U. after   21 cycles
            NFock= 20  Conv=0.59D-01     -V/T= 2.1570
 KE= 4.020597183756D+02 PE=-1.956338498818D+03 EE= 6.803106536205D+02
 Leave Link  502 at Sat Oct 18 14:07:10 2025, MaxMem=  4294967296 cpu:               3.4 elap:               0.4
 (Enter /opt/modules/software/gaussian/G16-C01/l508.exe)
 Keep R1 ints in memory in symmetry-blocked form, NReq=8551916.
 FoFCou: FMM=F IPFlag=           0 FMFlag=           0 FMFlg1=           0
         NFxFlg=           0 DoJE=F BraDBF=F KetDBF=F FulRan=T
         wScrn=  0.000000 ICntrl=       600 IOpCl=  0 I1Cent=           0 NGrid=           0
         NMat0=    1 NMatS0=   1711 NMatT0=    0 NMatD0=    1 NMtDS0=    0 NMtDT0=    0
 Petite list used in FoFCou.
 Tight linear equation convergence will be used.
 RPBE1PBE wavefunction.
 Quadratic Convergence SCF Method.
 Line search only if initial step raises energy.
 Density matrix breaks symmetry, PCut= 1.00D-04
 Density has only Abelian symmetry.
 Iteration   1 EE= -463.852926897598                                    Grad=1.451D+00 Max rot=   15.8555 deg.
 Gradient too large for Newton-Raphson -- use scaled steepest descent instead.
 Alpha Gap=     0.015 HL deriv= 2.56D-14
     ILin= 1 X=0.000D+00 Y=-4.638529268976D+02 DE= 0.00D+00 F= -3.52D+00
     ILin= 2 X=3.000D-01 Y=-4.645764883234D+02 DE=-7.24D-01 F= -1.24D+00 OKLS=F
     ILin= 3 X=4.000D-01 Y=-4.646594589800D+02 DE=-8.07D-01 F= -4.22D-01
     ILin= 4 X=6.000D-01 Y=-4.645830362921D+02 DE=-7.30D-01 F=  1.17D+00
     An  expanding polynomial of degree  4 produced  0.4531
 Density matrix breaks symmetry, PCut= 1.00D-04
 Density has only Abelian symmetry.
 Iteration   2 EE= -464.670370989155     Delta-E=       -0.817444091557 Grad=3.643D-01 Max rot=    4.5889 deg.
 Gradient too large for Newton-Raphson -- use scaled steepest descent instead.
 Alpha Gap=     0.044 HL deriv= 2.12D-14
     ILin= 1 X=0.000D+00 Y=-4.646703709892D+02 DE= 0.00D+00 F= -3.40D-01
     ILin= 2 X=4.000D-01 Y=-4.647720036289D+02 DE=-1.02D-01 F= -1.54D-01 OKLS=F
     ILin= 3 X=5.000D-01 Y=-4.647843397535D+02 DE=-1.14D-01 F= -9.21D-02
     ILin= 4 X=7.000D-01 Y=-4.647890380270D+02 DE=-1.19D-01 F=  4.91D-02
     Accept linear search using points  3 and  4.
     An  expanding polynomial of degree  4 produced  0.5946
 Density matrix breaks symmetry, PCut= 1.00D-04
 Density has only Abelian symmetry.
 Iteration   3 EE= -464.790079423258     Delta-E=       -0.119708434103 Grad=1.399D-01 Max rot=    2.0059 deg.
 Gradient too large for Newton-Raphson -- use scaled steepest descent instead.
 Alpha Gap=     0.050 HL deriv= 2.26D-14
     ILin= 1 X=0.000D+00 Y=-4.647900794233D+02 DE= 0.00D+00 F= -3.88D-02
     ILin= 2 X=5.000D-01 Y=-4.648051090599D+02 DE=-1.50D-02 F= -2.12D-02 OKLS=F
     ILin= 3 X=9.000D-01 Y=-4.648106307426D+02 DE=-2.06D-02 F= -6.35D-03
     ILin= 4 X=1.500D+00 Y=-4.648075085487D+02 DE=-1.74D-02 F=  1.70D-02
     An  expanding polynomial of degree  4 produced  1.0668
 Density matrix breaks symmetry, PCut= 1.00D-04
 Density has only Abelian symmetry.
 Iteration   4 EE= -464.811161294456     Delta-E=       -0.021081871198 Grad=9.255D-02 Max rot=    1.5142 deg.
 Gradient too large for Newton-Raphson -- use scaled steepest descent instead.
 Alpha Gap=     0.043 HL deriv= 1.40D-14
     ILin= 1 X=0.000D+00 Y=-4.648111612945D+02 DE= 0.00D+00 F= -1.38D-02
     ILin= 2 X=8.000D-01 Y=-4.648083641127D+02 DE= 2.80D-03 F=  2.09D-02 OKLS=T
     Reject lnstep IMin12=  1  2 Big=F Turn=F Min= 3.436D-01 FVal=-4.648141749506D+02 Lims=  0.00D+00  8.00D-01
     ILin= 3 X=3.000D-01 Y=-4.648133575635D+02 DE=-2.20D-03 F= -8.62D-04
     A contracting polynomial of degree  3 produced  0.3192
     Minimum is close to point  3 DX=  1.92D-02 DF= -7.97D-06 DXR=  6.01D-02 DFR=  3.63D-03 which will be used.
 Density matrix breaks symmetry, PCut= 1.00D-04
 Density has only Abelian symmetry.
 Iteration   5 EE= -464.813357563535     Delta-E=       -0.002196269079 Grad=2.141D-02 Max rot=    0.3430 deg.
 Gradient too large for Newton-Raphson -- use scaled steepest descent instead.
 Alpha Gap=     0.048 HL deriv= 1.84D-14
     ILin= 1 X=0.000D+00 Y=-4.648133575635D+02 DE= 0.00D+00 F= -1.59D-03
     ILin= 2 X=6.000D-01 Y=-4.648138406014D+02 DE=-4.83D-04 F= -2.96D-06 OKLS=T
     Reject lnstep IMin12=  1  2 Big=T Turn=F Min= 6.148D-01 FVal=-4.648138406366D+02 Lims=  0.00D+00  6.00D-01
     ILin= 3 X=1.200D+00 Y=-4.648133442755D+02 DE= 1.33D-05 F=  1.67D-03
     An  expanding polynomial of degree  3 produced  0.5959
     Minimum is close to point  2 DX= -4.07D-03 DF= -2.25D-08 DXR=  6.83D-03 DFR=  4.67D-05 which will be used.
 Density matrix breaks symmetry, PCut= 1.00D-04
 Density has only Abelian symmetry.
 Iteration   6 EE= -464.813840601417     Delta-E=       -0.000483037882 Grad=1.995D-02 Max rot=    0.2468 deg.
 Gradient too large for Newton-Raphson -- use scaled steepest descent instead.
 Alpha Gap=     0.045 HL deriv= 1.22D-14
     ILin= 1 X=0.000D+00 Y=-4.648138406014D+02 DE= 0.00D+00 F= -7.91D-04
     ILin= 2 X=4.000D-01 Y=-4.648139813033D+02 DE=-1.41D-04 F=  8.74D-05 OKLS=T
     Accept linear search using points  1 and  2.
     An  expanding polynomial of degree  2 produced  0.2230
 Density matrix breaks symmetry, PCut= 1.00D-04
 Density has only Abelian symmetry.
 Iteration   7 EE= -464.813962372021     Delta-E=       -0.000121770604 Grad=1.019D-02 Max rot=    0.1493 deg.
 Gradient too large for Newton-Raphson -- use scaled steepest descent instead.
 Alpha Gap=     0.046 HL deriv= 9.10D-15
     ILin= 1 X=0.000D+00 Y=-4.648139623720D+02 DE= 0.00D+00 F= -2.03D-04
     ILin= 2 X=6.000D-01 Y=-4.648140509519D+02 DE=-8.86D-05 F= -9.22D-05 OKLS=F
     ILin= 3 X=1.200D+00 Y=-4.648140730773D+02 DE=-1.11D-04 F=  1.85D-05
     Accept linear search using points  2 and  3.
     An  expanding polynomial of degree  3 produced  0.9975
 Density matrix breaks symmetry, PCut= 1.00D-04
 Density has only Abelian symmetry.
 Iteration   8 EE= -464.814073037416     Delta-E=       -0.000110665395 Grad=4.366D-03 Max rot=    0.0651 deg.
 QCNR:  CnvC1=4.08D-09 CnvC2=4.08D-08
 LinEq1:  Iter=  0 NonCon=     1 RMS=6.90D-04 Max=1.40D-02 NDo=     1
 AX will form     1 AO Fock derivatives at one time.
 LinEq1:  Iter=  1 NonCon=     1 RMS=3.87D-04 Max=4.01D-03 NDo=     1
 LinEq1:  Iter=  2 NonCon=     1 RMS=2.36D-04 Max=2.61D-03 NDo=     1
 LinEq1:  Iter=  3 NonCon=     1 RMS=6.04D-05 Max=9.39D-04 NDo=     1
 LinEq1:  Iter=  4 NonCon=     1 RMS=1.86D-05 Max=4.06D-04 NDo=     1
 LinEq1:  Iter=  5 NonCon=     1 RMS=2.77D-06 Max=3.40D-05 NDo=     1
 LinEq1:  Iter=  6 NonCon=     1 RMS=2.11D-07 Max=3.20D-06 NDo=     1
 LinEq1:  Iter=  7 NonCon=     1 RMS=1.90D-08 Max=2.08D-07 NDo=     1
 LinEq1:  Iter=  8 NonCon=     0 RMS=1.14D-09 Max=1.68D-08 NDo=     1
 Linear equations converged to 4.079D-09 4.079D-08 after     8 iterations.
 Angle between quadratic step and gradient=  52.17 degrees.
     ILin= 1 X=0.000D+00 Y=-4.648140730374D+02 DE= 0.00D+00 F= -4.06D-05
     ILin= 2 X=1.000D+00 Y=-4.648140932631D+02 DE=-2.02D-05 F=  2.57D-07 OKLS=T
     Accept linear search using points  1 and  2.
     An  expanding polynomial of degree  2 produced  0.9937
     Minimum is close to point  2 DX= -6.26D-03 DF= -8.05D-10 DXR=  6.30D-03 DFR=  3.98D-05 which will be used.
 Density matrix breaks symmetry, PCut= 1.00D-04
 Density has only Abelian symmetry.
 Iteration   9 EE= -464.814093263080     Delta-E=       -0.000020225664 Grad=2.454D-05 Max rot=    0.0005 deg.
 QCNR:  CnvC1=2.45D-10 CnvC2=2.45D-09
 LinEq1:  Iter=  0 NonCon=     1 RMS=4.47D-06 Max=9.02D-05 NDo=     1
 LinEq1:  Iter=  1 NonCon=     1 RMS=2.70D-06 Max=3.49D-05 NDo=     1
 LinEq1:  Iter=  2 NonCon=     1 RMS=1.91D-06 Max=2.04D-05 NDo=     1
 LinEq1:  Iter=  3 NonCon=     1 RMS=4.55D-07 Max=4.89D-06 NDo=     1
 LinEq1:  Iter=  4 NonCon=     1 RMS=1.48D-07 Max=3.60D-06 NDo=     1
[...]
 B after Tr=    -0.000000    0.000000   -0.000000
         Rot=    1.000000    0.000000   -0.000000   -0.000000 Ang=   0.00 deg.
 Guess basis will be translated and rotated to current coordinates.
 JPrj=2 DoOrth=T DoCkMO=T.
 Initial guess orbital symmetries:
       Occupied  (A1) (T2) (T2) (T2) (A1) (T2) (T2) (T2) (A1) (T2)
                 (T2) (T2) (T2) (T2) (T2) (E) (E) (T1) (T1) (T1)
                 (E) (E) (T2) (T2) (T2) (A1)
       Virtual   (T2) (T2) (T2) (A1) (T2) (T2) (T2) (T2) (T2) (T2)
                 (A1) (A1) (T2) (T2) (T2) (E) (E) (T1) (T1) (T1)
                 (T2) (T2) (T2) (E) (E) (T2) (T2) (T2) (A1) (T2)
                 (T2) (T2)
 The electronic state of the initial guess is 1-A1.
 Generating alternative initial guess.
 ExpMin= 2.40D-02 ExpMax= 7.82D+03 ExpMxC= 2.73D+02 IAcc=3 IRadAn=         5 AccDes= 0.00D+00
 Harris functional with IExCor= 1009 and IRadAn=       5 diagonalized for initial guess.
 HarFok:  IExCor= 1009 AccDes= 0.00D+00 IRadAn=         5 IDoV= 1 UseB2=F ITyADJ=14
 ICtDFT=  3500011 ScaDFX=  1.000000  1.000000  1.000000  1.000000
 FoFCou: FMM=F IPFlag=           0 FMFlag=      100000 FMFlg1=           0
         NFxFlg=           0 DoJE=T BraDBF=F KetDBF=T FulRan=T
         wScrn=  0.000000 ICntrl=       500 IOpCl=  0 I1Cent=   200000004 NGrid=           0
         NMat0=    1 NMatS0=      1 NMatT0=    0 NMatD0=    1 NMtDS0=    0 NMtDT0=    0
 Petite list used in FoFCou.
 Harris En= -470.135840974246    
 Leave Link  401 at Sat Oct 18 14:08:50 2025, MaxMem=  4294967296 cpu:               0.8 elap:               0.1
 (Enter /opt/modules/software/gaussian/G16-C01/l502.exe)
 Keep R1 ints in memory in symmetry-blocked form, NReq=8551516.
 FoFCou: FMM=F IPFlag=           0 FMFlag=           0 FMFlg1=           0
         NFxFlg=           0 DoJE=F BraDBF=F KetDBF=F FulRan=T
         wScrn=  0.000000 ICntrl=       600 IOpCl=  0 I1Cent=           0 NGrid=           0
         NMat0=    1 NMatS0=   1711 NMatT0=    0 NMatD0=    1 NMtDS0=    0 NMtDT0=    0
 Petite list used in FoFCou.
 Closed shell SCF:
 Using DIIS extrapolation, IDIIS=  1040.
 NGot=  4294967296 LenX=  4294585980 LenY=  4294581939
 Requested convergence on RMS density matrix=1.00D-08 within  20 cycles.
 Requested convergence on MAX density matrix=1.00D-06.
 Requested convergence on             energy=1.00D-06.
 No special actions if energy rises.

 Cycle   1  Pass 1  IDiag  1:
 E= -468.936861423272    
 DIIS: error= 3.12D-05 at cycle   1 NSaved=   1.
 NSaved= 1 IEnMin= 1 EnMin= -468.936861423272     IErMin= 1 ErrMin= 3.12D-05
 ErrMax= 3.12D-05  0.00D+00 EMaxC= 1.00D-01 BMatC= 1.36D-08 BMatP= 1.36D-08
 IDIUse=1 WtCom= 1.00D+00 WtEn= 0.00D+00
 Coeff-Com:  0.100D+01
 Coeff:      0.100D+01
 Gap=     0.008 Goal=   None    Shift=    0.000
 RMSDP=1.53D-04 MaxDP=1.07D-03              OVMax= 4.82D-03

 Cycle   2  Pass 1  IDiag  1:
 E= -468.936827195651     Delta-E=        0.000034227621 Rises=F Damp=F
 DIIS: error= 9.85D-04 at cycle   2 NSaved=   2.
 NSaved= 2 IEnMin= 1 EnMin= -468.936861423272     IErMin= 1 ErrMin= 3.12D-05
 ErrMax= 9.85D-04  0.00D+00 EMaxC= 1.00D-01 BMatC= 2.83D-05 BMatP= 1.36D-08
 IDIUse=3 WtCom= 2.42D-01 WtEn= 7.58D-01
 Coeff-Com:  0.991D+00 0.888D-02
 Coeff-En:   0.974D+00 0.265D-01
 Coeff:      0.978D+00 0.222D-01
 Gap=     0.008 Goal=   None    Shift=    0.000
 RMSDP=6.45D-05 MaxDP=4.96D-04 DE= 3.42D-05 OVMax= 2.02D-03

 Cycle   3  Pass 1  IDiag  1:
 E= -468.936851860684     Delta-E=       -0.000024665033 Rises=F Damp=F
 DIIS: error= 5.03D-04 at cycle   3 NSaved=   3.
 NSaved= 3 IEnMin= 1 EnMin= -468.936861423272     IErMin= 1 ErrMin= 3.12D-05
 ErrMax= 5.03D-04  0.00D+00 EMaxC= 1.00D-01 BMatC= 7.59D-06 BMatP= 1.36D-08
 IDIUse=3 WtCom= 3.08D-01 WtEn= 6.92D-01
 Coeff-Com:  0.546D+00-0.478D+00 0.931D+00
 Coeff-En:   0.930D+00 0.000D+00 0.698D-01
 Coeff:      0.812D+00-0.147D+00 0.335D+00
 Gap=     0.008 Goal=   None    Shift=    0.000
 RMSDP=4.85D-05 MaxDP=3.60D-04 DE=-2.47D-05 OVMax= 1.52D-03

 Cycle   4  Pass 1  IDiag  1:
 E= -468.936860402792     Delta-E=       -0.000008542108 Rises=F Damp=F
 DIIS: error= 1.61D-04 at cycle   4 NSaved=   4.
 NSaved= 4 IEnMin= 1 EnMin= -468.936861423272     IErMin= 1 ErrMin= 3.12D-05
 ErrMax= 1.61D-04  0.00D+00 EMaxC= 1.00D-01 BMatC= 8.18D-07 BMatP= 1.36D-08
 IDIUse=3 WtCom= 4.41D-01 WtEn= 5.59D-01
 Coeff-Com:  0.151D+00 0.432D+00-0.144D+01 0.186D+01
 Coeff-En:   0.776D+00 0.000D+00 0.000D+00 0.224D+00
 Coeff:      0.500D+00 0.191D+00-0.635D+00 0.944D+00
 Gap=     0.008 Goal=   None    Shift=    0.000
 RMSDP=3.44D-05 MaxDP=2.52D-04 DE=-8.54D-06 OVMax= 1.08D-03

 Cycle   5  Pass 1  IDiag  1:
 E= -468.936861456387     Delta-E=       -0.000001053595 Rises=F Damp=F
 DIIS: error= 7.64D-05 at cycle   5 NSaved=   5.
 NSaved= 5 IEnMin= 5 EnMin= -468.936861456387     IErMin= 1 ErrMin= 3.12D-05
 ErrMax= 7.64D-05  0.00D+00 EMaxC= 1.00D-01 BMatC= 1.52D-07 BMatP= 1.36D-08
 IDIUse=1 WtCom= 1.00D+00 WtEn= 0.00D+00
 Coeff-Com:  0.306D-01 0.590D+00-0.141D+01 0.113D+01 0.665D+00
 Coeff:      0.306D-01 0.590D+00-0.141D+01 0.113D+01 0.665D+00
 Gap=     0.008 Goal=   None    Shift=    0.000
 RMSDP=8.54D-06 MaxDP=4.28D-05 DE=-1.05D-06 OVMax= 2.65D-04

 Cycle   6  Pass 1  IDiag  1:
 E= -468.936861181713     Delta-E=        0.000000274673 Rises=F Damp=F
 DIIS: error= 1.07D-04 at cycle   6 NSaved=   6.
 NSaved= 6 IEnMin= 5 EnMin= -468.936861456387     IErMin= 1 ErrMin= 3.12D-05
 ErrMax= 1.07D-04  0.00D+00 EMaxC= 1.00D-01 BMatC= 3.35D-07 BMatP= 1.36D-08
 IDIUse=1 WtCom= 1.00D+00 WtEn= 0.00D+00
 Coeff-Com: -0.669D-02-0.123D+00 0.405D+00 0.328D-01-0.491D+00 0.118D+01
 Coeff:     -0.669D-02-0.123D+00 0.405D+00 0.328D-01-0.491D+00 0.118D+01
 Gap=     0.008 Goal=   None    Shift=    0.000
 RMSDP=1.46D-05 MaxDP=1.09D-04 DE= 2.75D-07 OVMax= 4.57D-04

 Cycle   7  Pass 1  IDiag  1:
 E= -468.936861585574     Delta-E=       -0.000000403861 Rises=F Damp=F
 DIIS: error= 3.43D-06 at cycle   7 NSaved=   7.
 NSaved= 7 IEnMin= 7 EnMin= -468.936861585574     IErMin= 7 ErrMin= 3.43D-06
 ErrMax= 3.43D-06  0.00D+00 EMaxC= 1.00D-01 BMatC= 3.46D-10 BMatP= 1.36D-08
 IDIUse=1 WtCom= 1.00D+00 WtEn= 0.00D+00
 Coeff-Com: -0.394D-04 0.813D-02-0.248D-01-0.917D-02 0.372D-01-0.118D+00
 Coeff-Com:  0.111D+01
 Coeff:     -0.394D-04 0.813D-02-0.248D-01-0.917D-02 0.372D-01-0.118D+00
 Coeff:      0.111D+01
 Gap=     0.008 Goal=   None    Shift=    0.000
 RMSDP=5.29D-07 MaxDP=3.96D-06 DE=-4.04D-07 OVMax= 1.66D-05

 Cycle   8  Pass 1  IDiag  1:
 E= -468.936861585990     Delta-E=       -0.000000000416 Rises=F Damp=F
 DIIS: error= 2.93D-07 at cycle   8 NSaved=   8.
 NSaved= 8 IEnMin= 8 EnMin= -468.936861585990     IErMin= 8 ErrMin= 2.93D-07
 ErrMax= 2.93D-07  0.00D+00 EMaxC= 1.00D-01 BMatC= 2.56D-12 BMatP= 3.46D-10
 IDIUse=1 WtCom= 1.00D+00 WtEn= 0.00D+00
 Coeff-Com:  0.160D-03-0.468D-02 0.133D-01 0.657D-02-0.217D-01 0.791D-01
 Coeff-Com: -0.906D+00 0.183D+01
 Coeff:      0.160D-03-0.468D-02 0.133D-01 0.657D-02-0.217D-01 0.791D-01
 Coeff:     -0.906D+00 0.183D+01
 Gap=     0.008 Goal=   None    Shift=    0.000
 RMSDP=6.00D-08 MaxDP=4.26D-07 DE=-4.16D-10 OVMax= 1.87D-06

 Cycle   9  Pass 1  IDiag  1:
 E= -468.936861585993     Delta-E=       -0.000000000004 Rises=F Damp=F
 DIIS: error= 1.12D-07 at cycle   9 NSaved=   9.
 NSaved= 9 IEnMin= 9 EnMin= -468.936861585993     IErMin= 9 ErrMin= 1.12D-07
 ErrMax= 1.12D-07  0.00D+00 EMaxC= 1.00D-01 BMatC= 3.76D-13 BMatP= 2.56D-12
 IDIUse=1 WtCom= 1.00D+00 WtEn= 0.00D+00
 Coeff-Com:  0.428D-04 0.189D-03-0.495D-03-0.164D-03 0.820D-03-0.822D-02
 Coeff-Com:  0.131D+00-0.432D+00 0.131D+01
 Coeff:      0.428D-04 0.189D-03-0.495D-03-0.164D-03 0.820D-03-0.822D-02
 Coeff:      0.131D+00-0.432D+00 0.131D+01
 Gap=     0.008 Goal=   None    Shift=    0.000
 RMSDP=1.99D-08 MaxDP=1.45D-07 DE=-3.58D-12 OVMax= 6.20D-07

 Cycle  10  Pass 1  IDiag  1:
 E= -468.936861585995     Delta-E=       -0.000000000002 Rises=F Damp=F
 DIIS: error= 2.62D-08 at cycle  10 NSaved=  10.
 NSaved=10 IEnMin=10 EnMin= -468.936861585995     IErMin=10 ErrMin= 2.62D-08
 ErrMax= 2.62D-08  0.00D+00 EMaxC= 1.00D-01 BMatC= 2.03D-14 BMatP= 3.76D-13
 IDIUse=1 WtCom= 1.00D+00 WtEn= 0.00D+00
 Coeff-Com: -0.384D-06 0.890D-04-0.209D-03-0.979D-04 0.356D-03-0.201D-02
 Coeff-Com:  0.346D-01-0.102D+00 0.234D+00 0.835D+00
 Coeff:     -0.384D-06 0.890D-04-0.209D-03-0.979D-04 0.356D-03-0.201D-02
 Coeff:      0.346D-01-0.102D+00 0.234D+00 0.835D+00
 Gap=     0.008 Goal=   None    Shift=    0.000
 RMSDP=3.98D-09 MaxDP=2.97D-08 DE=-1.88D-12 OVMax= 1.25D-07

 SCF Done:  E(RPBE1PBE) =  -468.936861586     A.U. after   10 cycles
            NFock= 10  Conv=0.40D-08     -V/T= 2.1519
 KE= 4.070950776572D+02 PE=-1.223534883906D+03 EE= 3.045786814717D+02
 Leave Link  502 at Sat Oct 18 14:08:50 2025, MaxMem=  4294967296 cpu:               1.6 elap:               0.2
 (Enter /opt/modules/software/gaussian/G16-C01/l508.exe)
 QCSCF skips out because SCF is already converged.
 Leave Link  508 at Sat Oct 18 14:08:50 2025, MaxMem=  4294967296 cpu:               0.0 elap:               0.0
 (Enter /opt/modules/software/gaussian/G16-C01/l108.exe)
 Scan completed.
 
 Summary of the potential surface scan:
   N       r          SCF    
 ----  ---------  -----------
    1     1.0000   -463.46312
    2     1.0500   -464.81409
    3     1.1000   -465.87645
    4     1.1500   -466.70901
    5     1.2000   -467.83806
    6     1.2500   -468.30516
    7     1.3000   -468.65679
    8     1.3500   -468.91834
    9     1.4000   -469.10996
   10     1.4500   -469.24753
   11     1.5000   -469.34352
   12     1.5500   -469.40770
   13     1.6000   -469.44765
   14     1.6500   -469.46922
   15     1.7000   -469.47697
   16     1.7500   -469.47438
   17     1.8000   -469.46414
   18     1.8500   -469.44835
   19     1.9000   -469.42865
   20     1.9500   -469.40632
   21     2.0000   -469.38235
   22     2.0500   -469.35753
   23     2.1000   -469.33246
   24     2.1500   -469.30764
   25     2.2000   -469.28346
   26     2.2500   -469.26018
   27     2.3000   -469.23797
   28     2.3500   -469.21696
   29     2.4000   -469.19717
   30     2.4500   -469.17860
   31     2.5000   -469.16122
   32     2.5500   -469.14498
   33     2.6000   -469.12982
   34     2.6500   -469.11566
   35     2.7000   -469.10244
   36     2.7500   -469.09011
   37     2.8000   -469.07862
   38     2.8500   -469.06788
   39     2.9000   -469.05786
   40     2.9500   -469.04850
   41     3.0000   -469.03976
   42     3.0500   -469.03161
   43     3.1000   -469.02400
   44     3.1500   -469.01687
   45     3.2000   -469.01021
   46     3.2500   -469.00398
   47     3.3000   -468.99815
   48     3.3500   -468.99270
   49     3.4000   -468.98758
   50     3.4500   -468.98278
   51     3.5000   -468.97828
   52     3.5500   -468.97406
   53     3.6000   -468.97010
   54     3.6500   -468.96639
   55     3.7000   -468.96291
   56     3.7500   -468.95964
   57     3.8000   -468.95658
   58     3.8500   -468.95371
   59     3.9000   -468.95104
   60     3.9500   -468.94853
   61     4.0000   -468.94620
   62     4.0500   -468.94403
   63     4.1000   -468.94200
   64     4.1500   -468.94012
   65     4.2000   -468.93838
   66     4.2500   -468.93677
   67     4.3000   -468.93527
   68     4.3500   -468.93390
   69     4.4000   -468.93264
   70     4.4500   -468.93147
   71     4.5000   -468.93041
   72     4.5500   -468.92944
   73     4.6000   -468.92855
   74     4.6500   -468.92774
   75     4.7000   -468.92701
   76     4.7500   -468.92635
   77     4.8000   -468.92575
   78     4.8500   -468.92521
   79     4.9000   -468.92473
   80     4.9500   -468.92430
   81     5.0000   -468.92392
   82     5.0500   -468.92359
   83     5.1000   -468.92330
   84     5.1500   -468.92304
   85     5.2000   -468.92282
   86     5.2500   -468.92263
   87     5.3000   -468.92247
   88     5.3500   -468.92234
   89     5.4000   -468.92223
   90     5.4500   -468.92215
   91     5.5000   -468.92210
   92     5.5500   -468.92206
   93     5.6000   -468.92204
   94     5.6500   -468.92205
   95     5.7000   -468.92206
   96     5.7500   -468.92209
   97     5.8000   -468.92214
   98     5.8500   -468.92220
   99     5.9000   -468.92227
  100     5.9500   -468.92235
  101     6.0000   -468.92245
  102     6.0500   -468.92255
  103     6.1000   -468.92267
  104     6.1500   -468.92279
  105     6.2000   -468.92292
  106     6.2500   -468.92306
  107     6.3000   -468.92320
  108     6.3500   -468.92336
  109     6.4000   -468.92351
  110     6.4500   -468.92368
  111     6.5000   -468.92384
  112     6.5500   -468.92402
  113     6.6000   -468.92419
  114     6.6500   -468.92438
  115     6.7000   -468.92456
  116     6.7500   -468.92475
  117     6.8000   -468.92494
  118     6.8500   -468.92514
  119     6.9000   -468.92533
  120     6.9500   -468.92553
  121     7.0000   -468.92573
  122     7.0500   -468.92593
  123     7.1000   -468.92613
  124     7.1500   -468.92634
  125     7.2000   -468.92654
  126     7.2500   -468.92675
  127     7.3000   -468.92696
  128     7.3500   -468.92716
  129     7.4000   -468.92737
  130     7.4500   -468.92758
  131     7.5000   -468.92779
  132     7.5500   -468.92800
  133     7.6000   -468.92820
  134     7.6500   -468.92841
  135     7.7000   -468.92862
  136     7.7500   -468.92882
  137     7.8000   -468.92903
  138     7.8500   -468.92923
  139     7.9000   -468.92943
  140     7.9500   -468.92964
  141     8.0000   -468.92984
  142     8.0500   -468.93004
  143     8.1000   -468.93024
  144     8.1500   -468.93044
  145     8.2000   -468.93064
  146     8.2500   -468.93083
  147     8.3000   -468.93103
  148     8.3500   -468.93122
  149     8.4000   -468.93142
  150     8.4500   -468.93161
  151     8.5000   -468.93180
  152     8.5500   -468.93198
  153     8.6000   -468.93217
  154     8.6500   -468.93236
  155     8.7000   -468.93254
  156     8.7500   -468.93272
  157     8.8000   -468.93290
  158     8.8500   -468.93308
  159     8.9000   -468.93326
  160     8.9500   -468.93344
  161     9.0000   -468.93362
  162     9.0500   -468.93379
  163     9.1000   -468.93397
  164     9.1500   -468.93414
  165     9.2000   -468.93431
  166     9.2500   -468.93448
  167     9.3000   -468.93465
  168     9.3500   -468.93481
  169     9.4000   -468.93498
  170     9.4500   -468.93514
  171     9.5000   -468.93530
  172     9.5500   -468.93546
  173     9.6000   -468.93562
  174     9.6500   -468.93578
  175     9.7000   -468.93594
  176     9.7500   -468.93610
  177     9.8000   -468.93625
  178     9.8500   -468.93641
  179     9.9000   -468.93656
  180     9.9500   -468.93671
  181    10.0000   -468.93686
 ----  ---------  -----------
  
 Leave Link  108 at Sat Oct 18 14:08:50 2025, MaxMem=  4294967296 cpu:               0.0 elap:               0.0
 (Enter /opt/modules/software/gaussian/G16-C01/l9999.exe)
 Unable to Open any file for archive entry.
 1\1\GINC-PRCC02008\Scan\RPBE1PBE\GenECP\Ni1O4(2-)\FUTERA\18-Oct-2025\1
 \\#p PBE1PBE/GenECP SCF(Tight,XQC,MaxCycle=500,MaxConventional=20) Sca
 n\\Nickel ferrate (PBE0/LANL2DZ)\\-2,1\Ni\O,1,r\O,1,r,2,109.47122063\O
 ,1,r,3,109.47122063,2,-120.,0\O,1,r,4,109.47122063,3,120.,0\\r=1.,s,18
 0,0.05\\Version=ES64L-G16RevC.01\State=1-A1\HF=-463.4631188,-464.81409
 33,-465.8764476,-466.7090121,-467.8380631,-468.3051623,-468.6567898,-4
 68.9183437,-469.109959,-469.2475257,-469.3435225,-469.4077016,-469.447
 6457,-469.4692241,-469.4769704,-469.4743759,-469.4641384,-469.4483513,
 -469.4286479,-469.4063151,-469.3823537,-469.3575294,-469.3324566,-469.
 3076414,-469.2834627,-469.2601796,-469.2379748,-469.2169614,-469.19717
 48,-469.1786017,-469.1612158,-469.1449764,-469.1298172,-469.1156609,-4
 69.1024439,-469.0901147,-469.0786162,-469.0678838,-469.0578591,-469.04
 84984,-469.0397639,-469.0316125,-469.0239971,-469.0168747,-469.0102116
 ,-469.00398,-468.9981515,-468.9926951,-468.9875802,-468.9827815,-468.9
 782791,-468.9740571,-468.9700989,-468.9663872,-468.9629054,-468.959639
 9,-468.9565796,-468.9537148,-468.9510363,-468.9485349,-468.946201,-468
 .9440259,-468.9420018,-468.9401218,-468.9383786,-468.9367653,-468.9352
 748,-468.9339003,-468.9326351,-468.9314731,-468.9304087,-468.9294365,-
 468.9285506,-468.927745,-468.9270136,-468.9263511,-468.9257529,-468.92
 52148,-468.924733,-468.9243041,-468.9239242,-468.9235896,-468.9232963,
 -468.9230407,-468.9228196,-468.9226304,-468.9224711,-468.9223398,-468.
 922235,-468.922155,-468.9220979,-468.9220618,-468.9220448,-468.9220452
 ,-468.9220616,-468.9220929,-468.9221383,-468.922197,-468.9222684,-468.
 9223518,-468.9224464,-468.9225515,-468.9226662,-468.9227896,-468.92292
 1,-468.9230596,-468.9232049,-468.9233563,-468.9235136,-468.9236764,-46
 8.9238443,-468.9240171,-468.9241944,-468.9243759,-468.9245612,-468.924
 7499,-468.9249415,-468.9251357,-468.925332,-468.9255302,-468.9257299,-
 468.9259312,-468.9261339,-468.9263378,-468.9265429,-468.9267491,-468.9
 269561,-468.9271637,-468.9273717,-468.9275799,-468.927788,-468.9279958
 ,-468.9282032,-468.92841,-468.9286162,-468.9288217,-468.9290265,-468.9
 292306,-468.9294341,-468.9296369,-468.9298389,-468.9300401,-468.930240
 3,-468.9304394,-468.9306374,-468.930834,-468.9310292,-468.931223,-468.
 9314153,-468.931606,-468.9317954,-468.9319833,-468.9321698,-468.932355
 1,-468.9325391,-468.9327218,-468.9329034,-468.9330837,-468.9332627,-46
 8.9334405,-468.933617,-468.9337921,-468.9339659,-468.9341381,-468.9343
 089,-468.9344783,-468.9346461,-468.9348125,-468.9349775,-468.9351411,-
 468.9353035,-468.9354646,-468.9356245,-468.9357831,-468.9359406,-468.9
 36097,-468.9362522,-468.9364062,-468.9365591,-468.9367109,-468.9368616
 \RMSD=4.014e-10,2.786e-11,6.371e-13,3.344e-13,8.904e-09,2.251e-09,2.67
 4e-09,3.042e-09,3.349e-09,1.352e-09,7.172e-09,5.662e-09,7.318e-09,1.02
 3e-09,3.167e-09,8.400e-09,2.467e-10,9.334e-09,1.481e-10,3.129e-10,6.83
 1e-10,1.273e-09,2.191e-09,3.980e-09,7.555e-09,5.051e-09,5.071e-09,9.53
 1e-09,8.219e-10,1.090e-09,1.369e-09,3.050e-09,7.356e-09,3.004e-09,6.63
 0e-10,4.574e-09,8.584e-09,6.548e-09,6.589e-09,7.352e-10,7.278e-09,7.42
 0e-09,6.762e-09,7.403e-09,8.302e-09,8.001e-09,5.904e-09,3.414e-09,2.19
 9e-09,1.583e-09,5.016e-09,1.059e-09,2.307e-09,4.039e-10,6.242e-09,5.39
 7e-09,5.896e-09,6.687e-09,6.891e-09,6.806e-09,7.819e-09,7.258e-09,6.43
 8e-09,5.579e-09,4.785e-09,2.676e-09,2.590e-09,6.736e-09,1.228e-09,1.87
 2e-09,4.887e-09,7.191e-09,7.841e-09,2.286e-09,1.681e-09,4.602e-09,5.46
 3e-09,4.785e-09,5.516e-09,5.912e-09,6.382e-09,6.714e-09,6.140e-09,7.00
 3e-09,6.839e-09,7.232e-09,7.676e-09,8.746e-09,8.924e-09,9.969e-10,1.03
 4e-09,1.114e-09,1.219e-09,1.330e-09,1.383e-09,1.558e-09,1.652e-09,1.87
 6e-09,1.990e-09,2.264e-09,2.470e-09,2.680e-09,2.906e-09,3.284e-09,3.51
 1e-09,3.829e-09,4.360e-09,4.825e-09,5.165e-09,5.530e-09,6.126e-09,6.73
 9e-09,7.332e-09,8.255e-09,9.074e-09,9.957e-09,4.511e-10,4.834e-10,5.39
 9e-10,6.548e-10,7.406e-10,8.317e-10,9.897e-10,9.961e-11,1.228e-10,2.07
 8e-10,3.087e-10,4.741e-10,6.792e-10,1.017e-09,1.623e-09,2.225e-09,3.57
 3e-09,4.980e-09,6.836e-09,8.538e-09,9.905e-09,1.974e-10,9.745e-09,8.32
 5e-09,6.126e-09,3.558e-09,1.722e-09,1.822e-09,2.691e-09,3.213e-09,3.07
 0e-09,2.486e-09,1.916e-09,1.390e-09,9.449e-10,6.316e-10,4.319e-10,9.58
 5e-09,6.677e-09,3.828e-09,6.546e-10,2.799e-09,5.602e-09,6.652e-09,4.08
 7e-09,1.023e-09,4.134e-09,9.846e-09,4.481e-09,6.197e-09,4.331e-09,2.75
 3e-09,3.077e-09,3.960e-09,5.820e-09,4.853e-09,5.502e-09,6.109e-09,9.29
 2e-09,9.146e-09,8.401e-09,6.783e-09,6.062e-09,7.467e-09,3.978e-09\PG=T
 D [O(Ni1),4C3(O1)]\\@
 The archive entry for this job was punched.


 IT IS A SIMPLE TASK TO MAKE THINGS COMPLEX,
 BUT A COMPLEX TASK TO MAKE THEM SIMPLE.
 Job cpu time:       0 days  0 hours 12 minutes 47.7 seconds.
 Elapsed time:       0 days  0 hours  1 minutes 37.7 seconds.
 File lengths (MBytes):  RWF=      6 Int=      0 D2E=      0 Chk=      3 Scr=      1
 Normal termination of Gaussian 16 at Sat Oct 18 14:08:50 2025.
