 Entering Gaussian System, Link 0=g16
 Input=nio4-q2-opt.com
 Output=nio4-q2-opt.log
 Initial command:
 /opt/modules/software/gaussian/G16-C01/l1.exe "/home/futera/Documents/2025-nife2o4-params/bond-parameters/pbe0-lanl2dz/Gau-3704593.inp" -scrdir="/home/futera/Documents/2025-nife2o4-params/bond-parameters/pbe0-lanl2dz/"
 Entering Link 1 = /opt/modules/software/gaussian/G16-C01/l1.exe PID=   3704594.
  
 Copyright (c) 1988-2019, Gaussian, Inc.  All Rights Reserved.
  
 This is part of the Gaussian(R) 16 program.  It is based on
 the Gaussian(R) 09 system (copyright 2009, Gaussian, Inc.),
 the Gaussian(R) 03 system (copyright 2003, Gaussian, Inc.),
 the Gaussian(R) 98 system (copyright 1998, Gaussian, Inc.),
 the Gaussian(R) 94 system (copyright 1995, Gaussian, Inc.),
 the Gaussian 92(TM) system (copyright 1992, Gaussian, Inc.),
 the Gaussian 90(TM) system (copyright 1990, Gaussian, Inc.),
 the Gaussian 88(TM) system (copyright 1988, Gaussian, Inc.),
 the Gaussian 86(TM) system (copyright 1986, Carnegie Mellon
 University), and the Gaussian 82(TM) system (copyright 1983,
 Carnegie Mellon University). Gaussian is a federally registered
 trademark of Gaussian, Inc.
  
 This software contains proprietary and confidential information,
 including trade secrets, belonging to Gaussian, Inc.
  
 This software is provided under written license and may be
 used, copied, transmitted, or stored only in accord with that
 written license.
  
 The following legend is applicable only to US Government
 contracts under FAR:
  
                    RESTRICTED RIGHTS LEGEND
  
 Use, reproduction and disclosure by the US Government is
 subject to restrictions as set forth in subparagraphs (a)
 and (c) of the Commercial Computer Software - Restricted
 Rights clause in FAR 52.227-19.
  
 Gaussian, Inc.
 340 Quinnipiac St., Bldg. 40, Wallingford CT 06492
  
  
 ---------------------------------------------------------------
 Warning -- This program may not be used in any manner that
 competes with the business of Gaussian, Inc. or will provide
 assistance to any competitor of Gaussian, Inc.  The licensee
 of this program is prohibited from giving any competitor of
 Gaussian, Inc. access to this program.  By using this program,
 the user acknowledges that Gaussian, Inc. is engaged in the
 business of creating and licensing software in the field of
 computational chemistry and represents and warrants to the
 licensee that it is not a competitor of Gaussian, Inc. and that
 it will not use this program in any manner prohibited above.
 ---------------------------------------------------------------
  

 Cite this work as:
 Gaussian 16, Revision C.01,
 M. J. Frisch, G. W. Trucks, H. B. Schlegel, G. E. Scuseria, 
 M. A. Robb, J. R. Cheeseman, G. Scalmani, V. Barone, 
 G. A. Petersson, H. Nakatsuji, X. Li, M. Caricato, A. V. Marenich, 
 J. Bloino, B. G. Janesko, R. Gomperts, B. Mennucci, H. P. Hratchian, 
 J. V. Ortiz, A. F. Izmaylov, J. L. Sonnenberg, D. Williams-Young, 
 F. Ding, F. Lipparini, F. Egidi, J. Goings, B. Peng, A. Petrone, 
 T. Henderson, D. Ranasinghe, V. G. Zakrzewski, J. Gao, N. Rega, 
 G. Zheng, W. Liang, M. Hada, M. Ehara, K. Toyota, R. Fukuda, 
 J. Hasegawa, M. Ishida, T. Nakajima, Y. Honda, O. Kitao, H. Nakai, 
 T. Vreven, K. Throssell, J. A. Montgomery, Jr., J. E. Peralta, 
 F. Ogliaro, M. J. Bearpark, J. J. Heyd, E. N. Brothers, K. N. Kudin, 
 V. N. Staroverov, T. A. Keith, R. Kobayashi, J. Normand, 
 K. Raghavachari, A. P. Rendell, J. C. Burant, S. S. Iyengar, 
 J. Tomasi, M. Cossi, J. M. Millam, M. Klene, C. Adamo, R. Cammi, 
 J. W. Ochterski, R. L. Martin, K. Morokuma, O. Farkas, 
 J. B. Foresman, and D. J. Fox, Gaussian, Inc., Wallingford CT, 2019.
 
 ******************************************
 Gaussian 16:  ES64L-G16RevC.01  3-Jul-2019
                18-Oct-2025 
 ******************************************
 %mem=32GB
 %nproc=8
 Will use up to    8 processors via shared memory.
 %chk=nio4-q2-opt.chk
 ----------------------------------------------------------------------
 #p PBE1PBE/GenECP SCF(Tight,XQC,MaxCycle=500,MaxConventional=20) Opt(M
 axCycle=500)
 ----------------------------------------------------------------------
 1/6=500,18=20,19=15,26=3,38=1/1,3;
 2/9=110,12=2,17=6,18=5,40=1/2;
 3/5=7,11=2,16=1,17=8,25=1,30=1,71=1,74=-13/1,2,3;
 4//1;
 5/5=2,7=500,8=3,13=1,32=2,38=5,85=20/2,8;
 6/7=2,8=2,9=2,10=2,28=1/1;
 7//1,2,3,16;
 1/6=500,18=20,19=15,26=3/3(2);
 2/9=110/2;
 99//99;
 2/9=110/2;
 3/5=7,6=1,11=2,16=1,17=8,25=1,30=1,71=1,74=-13,82=7/1,2,3;
 4/5=5,16=3,69=1/1;
 5/5=2,7=500,8=3,13=1,32=2,38=5,85=20/2,8;
 7//1,2,3,16;
 1/6=500,18=20,19=15,26=3/3(-5);
 2/9=110/2;
 6/7=2,8=2,9=2,10=2,19=2,28=1/1;
 99/9=1/99;
 Leave Link    1 at Sat Oct 18 12:15:29 2025, MaxMem=  4294967296 cpu:               0.2 elap:               0.0
 (Enter /opt/modules/software/gaussian/G16-C01/l101.exe)
 -----------------------------
 Nickel ferrate (PBE0/LANL2DZ)
 -----------------------------
 Symbolic Z-matrix:
 Charge = -2 Multiplicity = 1
 Ni                    1.49907  -0.86549   3.05996 
 O                    -0.10902   0.06294   3.71647 
 O                     1.49907  -2.72235   3.71647 
 O                     1.49907  -0.86549   1.09046 
 O                     3.10716   0.06294   3.71646 
 
 ITRead=  0  0  0  0  0
 MicOpt= -1 -1 -1 -1 -1
 NAtoms=      5 NQM=        5 NQMF=       0 NMMI=      0 NMMIF=      0
                NMic=       0 NMicF=      0.
                    Isotopes and Nuclear Properties:
 (Nuclear quadrupole moments (NQMom) in fm**2, nuclear magnetic moments (NMagM)
  in nuclear magnetons)

  Atom         1           2           3           4           5
 IAtWgt=          58          16          16          16          16
 AtmWgt=  57.9353471  15.9949146  15.9949146  15.9949146  15.9949146
 NucSpn=           0           0           0           0           0
 AtZEff=  -0.0000000  -0.0000000  -0.0000000  -0.0000000  -0.0000000
 NQMom=    0.0000000   0.0000000   0.0000000   0.0000000   0.0000000
 NMagM=    0.0000000   0.0000000   0.0000000   0.0000000   0.0000000
 AtZNuc=  28.0000000   8.0000000   8.0000000   8.0000000   8.0000000
 Leave Link  101 at Sat Oct 18 12:15:29 2025, MaxMem=  4294967296 cpu:               2.6 elap:               0.3
 (Enter /opt/modules/software/gaussian/G16-C01/l103.exe)

 GradGradGradGradGradGradGradGradGradGradGradGradGradGradGradGradGradGrad
 Berny optimization.
 Initialization pass.
                           ----------------------------
                           !    Initial Parameters    !
                           ! (Angstroms and Degrees)  !
 --------------------------                            --------------------------
 ! Name  Definition              Value          Derivative Info.                !
 --------------------------------------------------------------------------------
 ! R1    R(1,2)                  1.9695         estimate D2E/DX2                !
 ! R2    R(1,3)                  1.9695         estimate D2E/DX2                !
 ! R3    R(1,4)                  1.9695         estimate D2E/DX2                !
 ! R4    R(1,5)                  1.9695         estimate D2E/DX2                !
 ! A1    A(2,1,3)              109.4712         estimate D2E/DX2                !
 ! A2    A(2,1,4)              109.4713         estimate D2E/DX2                !
 ! A3    A(2,1,5)              109.4712         estimate D2E/DX2                !
 ! A4    A(3,1,4)              109.4712         estimate D2E/DX2                !
 ! A5    A(3,1,5)              109.4712         estimate D2E/DX2                !
 ! A6    A(4,1,5)              109.4712         estimate D2E/DX2                !
 ! D1    D(2,1,4,3)           -120.0            estimate D2E/DX2                !
 ! D2    D(2,1,5,3)            120.0            estimate D2E/DX2                !
 ! D3    D(2,1,5,4)           -120.0            estimate D2E/DX2                !
 ! D4    D(3,1,5,4)            120.0            estimate D2E/DX2                !
 --------------------------------------------------------------------------------
 Trust Radius=3.00D-01 FncErr=1.00D-07 GrdErr=1.00D-06 EigMax=2.50D+02 EigMin=1.00D-04
 Number of steps in this run=    100 maximum allowed number of steps=    100.
 GradGradGradGradGradGradGradGradGradGradGradGradGradGradGradGradGradGrad

 Leave Link  103 at Sat Oct 18 12:15:29 2025, MaxMem=  4294967296 cpu:               0.0 elap:               0.0
 (Enter /opt/modules/software/gaussian/G16-C01/l202.exe)
                          Input orientation:                          
 ---------------------------------------------------------------------
 Center     Atomic      Atomic             Coordinates (Angstroms)
 Number     Number       Type             X           Y           Z
 ---------------------------------------------------------------------
      1         28           0        1.499070   -0.865489    3.059964
      2          8           0       -0.109020    0.062943    3.716465
      3          8           0        1.499070   -2.722352    3.716465
      4          8           0        1.499070   -0.865490    1.090464
      5          8           0        3.107161    0.062943    3.716464
 ---------------------------------------------------------------------
                    Distance matrix (angstroms):
                    1          2          3          4          5
     1  Ni   0.000000
     2  O    1.969501   0.000000
     3  O    1.969501   3.216181   0.000000
     4  O    1.969500   3.216181   3.216181   0.000000
     5  O    1.969501   3.216181   3.216182   3.216181   0.000000
 Stoichiometry    NiO4(2-)
 Framework group  D2D[O(Ni),2SGD(O2)]
 Deg. of freedom     2
 Full point group                 D2D     NOp   8
 Largest Abelian subgroup         C2V     NOp   4
 Largest concise Abelian subgroup C2V     NOp   4
                         Standard orientation:                         
 ---------------------------------------------------------------------
 Center     Atomic      Atomic             Coordinates (Angstroms)
 Number     Number       Type             X           Y           Z
 ---------------------------------------------------------------------
      1         28           0       -0.000000   -0.000000    0.000000
      2          8           0       -0.000000    1.608091    1.137092
      3          8           0       -1.608091    0.000000   -1.137092
      4          8           0        1.608091   -0.000000   -1.137092
      5          8           0       -0.000000   -1.608091    1.137092
 ---------------------------------------------------------------------
 Rotational constants (GHZ):           3.0545995           3.0545995           3.0545990
 Leave Link  202 at Sat Oct 18 12:15:29 2025, MaxMem=  4294967296 cpu:               0.0 elap:               0.0
 (Enter /opt/modules/software/gaussian/G16-C01/l301.exe)
 General basis read from cards:  (5D, 7F)
 Centers:       2      3      4      5
 S 7 1.00
     Exponent=  7.8170000000D+03 Coefficients=  1.1760000000D-03
     Exponent=  1.1760000000D+03 Coefficients=  8.9680000000D-03
     Exponent=  2.7320000000D+02 Coefficients=  4.2868000000D-02
     Exponent=  8.1170000000D+01 Coefficients=  1.4393000000D-01
     Exponent=  2.7180000000D+01 Coefficients=  3.5563000000D-01
     Exponent=  9.5320000000D+00 Coefficients=  4.6124800000D-01
     Exponent=  3.4140000000D+00 Coefficients=  1.4020600000D-01
 S 2 1.00
     Exponent=  9.5320000000D+00 Coefficients= -1.5415300000D-01
     Exponent=  9.3980000000D-01 Coefficients=  1.0569140000D+00
 S 1 1.00
     Exponent=  2.8460000000D-01 Coefficients=  1.0000000000D+00
 P 4 1.00
     Exponent=  3.5180000000D+01 Coefficients=  1.9580000000D-02
     Exponent=  7.9040000000D+00 Coefficients=  1.2420000000D-01
     Exponent=  2.3050000000D+00 Coefficients=  3.9471400000D-01
     Exponent=  7.1710000000D-01 Coefficients=  6.2737600000D-01
 P 1 1.00
     Exponent=  2.1370000000D-01 Coefficients=  1.0000000000D+00
 ****
 Centers:       1
 S 3 1.00
     Exponent=  7.6200000000D+00 Coefficients= -4.0825500000D-01
     Exponent=  2.2940000000D+00 Coefficients=  7.4553080000D-01
     Exponent=  8.7600000000D-01 Coefficients=  5.3257210000D-01
 S 4 1.00
     Exponent=  7.6200000000D+00 Coefficients=  1.8725910000D-01
     Exponent=  2.2940000000D+00 Coefficients= -3.9669640000D-01
     Exponent=  8.7600000000D-01 Coefficients= -4.9540030000D-01
     Exponent=  1.1530000000D-01 Coefficients=  1.0844343000D+00
 S 1 1.00
     Exponent=  3.9600000000D-02 Coefficients=  1.0000000000D+00
 P 3 1.00
     Exponent=  2.3660000000D+01 Coefficients= -4.8155800000D-02
     Exponent=  2.8930000000D+00 Coefficients=  6.2584730000D-01
     Exponent=  9.4350000000D-01 Coefficients=  4.7151580000D-01
 P 1 1.00
     Exponent=  8.4000000000D-02 Coefficients=  1.0000000000D+00
 P 1 1.00
     Exponent=  2.4000000000D-02 Coefficients=  1.0000000000D+00
 D 4 1.00
     Exponent=  4.2720000000D+01 Coefficients=  3.7269900000D-02
     Exponent=  1.1760000000D+01 Coefficients=  1.9561030000D-01
     Exponent=  3.8170000000D+00 Coefficients=  4.5612730000D-01
     Exponent=  1.1690000000D+00 Coefficients=  5.6215870000D-01
 D 1 1.00
     Exponent=  2.8360000000D-01 Coefficients=  1.0000000000D+00
 ****
 ======================================================================================================
                                       Pseudopotential Parameters
 ======================================================================================================
  Center     Atomic      Valence      Angular      Power
  Number     Number     Electrons     Momentum     of R      Exponent        Coefficient   SO-Coeffient
 ======================================================================================================
    1         28           18
                                      D and up 
                                                     1      469.9324331      -10.00000000    0.00000000
                                                     2       85.4236411      -69.40848050    0.00000000
                                                     2       21.2674984      -12.09510200    0.00000000
                                      S - D
                                                     0      162.1686097        3.00000000    0.00000000
                                                     1      176.5333232       22.02536180    0.00000000
                                                     2       68.9562010      443.01810880    0.00000000
                                                     2       13.5792838      145.56964110    0.00000000
                                      P - D
                                                     0       69.0181506        5.00000000    0.00000000
                                                     1      275.5955596        4.98828240    0.00000000
                                                     2       47.1315453      256.69458530    0.00000000
                                                     2       12.9874075       78.47544500    0.00000000
    2          8
                                   No pseudopotential on this center.
    3          8
                                   No pseudopotential on this center.
    4          8
                                   No pseudopotential on this center.
    5          8
                                   No pseudopotential on this center.
 ======================================================================================================
 Ernie: Thresh=  0.10000D-02 Tol=  0.10000D-05 Strict=F.
 Ernie:  1 primitive shells out of 78 were deleted.
 There are    26 symmetry adapted cartesian basis functions of A1  symmetry.
 There are     6 symmetry adapted cartesian basis functions of A2  symmetry.
 There are    14 symmetry adapted cartesian basis functions of B1  symmetry.
 There are    14 symmetry adapted cartesian basis functions of B2  symmetry.
 There are    24 symmetry adapted basis functions of A1  symmetry.
 There are     6 symmetry adapted basis functions of A2  symmetry.
 There are    14 symmetry adapted basis functions of B1  symmetry.
 There are    14 symmetry adapted basis functions of B2  symmetry.
    58 basis functions,   152 primitive gaussians,    60 cartesian basis functions
    26 alpha electrons       26 beta electrons
       nuclear repulsion energy       217.9448976757 Hartrees.
 IExCor= 1009 DFT=T Ex+Corr=PBE1PBE ExCW=0 ScaHFX=  0.250000
 ScaDFX=  0.750000  0.750000  1.000000  1.000000 ScalE2=  1.000000  1.000000
 IRadAn=      5 IRanWt=     -1 IRanGd=            0 ICorTp=0 IEmpDi=  4
 NAtoms=    5 NActive=    5 NUniq=    2 SFac= 4.00D+00 NAtFMM=   60 NAOKFM=F Big=F
 Integral buffers will be    131072 words long.
 Raffenetti 2 integral format.
 Two-electron integral symmetry is turned on.
 Leave Link  301 at Sat Oct 18 12:15:29 2025, MaxMem=  4294967296 cpu:               0.3 elap:               0.0
 (Enter /opt/modules/software/gaussian/G16-C01/l302.exe)
 NPDir=0 NMtPBC=     1 NCelOv=     1 NCel=       1 NClECP=     1 NCelD=      1
         NCelK=      1 NCelE2=     1 NClLst=     1 CellRange=     0.0.
 One-electron integrals computed using PRISM.
 One-electron integral symmetry used in STVInt
   8 Symmetry operations used in ECPInt.
 ECPInt:  NShTT=     406 NPrTT=    3130 LenC2=     401 LenP2D=    2286.
 LDataN:  DoStor=T MaxTD1= 4 Len=   56
 NBasis=    58 RedAO= T EigKep=  4.92D-02  NBF=    24     6    14    14
 NBsUse=    58 1.00D-06 EigRej= -1.00D+00 NBFU=    24     6    14    14
 Precomputing XC quadrature grid using
 IXCGrd= 4 IRadAn=           5 IRanWt=          -1 IRanGd=           0 AccXCQ= 0.00D+00.
 Generated NRdTot=       0 NPtTot=           0 NUsed=           0 NTot=          32
 NSgBfM=    60    60    60    60    60 MxSgAt=     5 MxSgA2=     5.
 Leave Link  302 at Sat Oct 18 12:15:29 2025, MaxMem=  4294967296 cpu:               0.5 elap:               0.1
 (Enter /opt/modules/software/gaussian/G16-C01/l303.exe)
 DipDrv:  MaxL=1.
 Leave Link  303 at Sat Oct 18 12:15:29 2025, MaxMem=  4294967296 cpu:               0.1 elap:               0.0
 (Enter /opt/modules/software/gaussian/G16-C01/l401.exe)
 ExpMin= 2.40D-02 ExpMax= 7.82D+03 ExpMxC= 2.73D+02 IAcc=3 IRadAn=         5 AccDes= 0.00D+00
 Harris functional with IExCor= 1009 and IRadAn=       5 diagonalized for initial guess.
 HarFok:  IExCor= 1009 AccDes= 0.00D+00 IRadAn=         5 IDoV= 1 UseB2=F ITyADJ=14
 ICtDFT=  3500011 ScaDFX=  1.000000  1.000000  1.000000  1.000000
 FoFCou: FMM=F IPFlag=           0 FMFlag=      100000 FMFlg1=           0
         NFxFlg=           0 DoJE=T BraDBF=F KetDBF=T FulRan=T
         wScrn=  0.000000 ICntrl=       500 IOpCl=  0 I1Cent=   200000004 NGrid=           0
         NMat0=    1 NMatS0=      1 NMatT0=    0 NMatD0=    1 NMtDS0=    0 NMtDT0=    0
 Petite list used in FoFCou.
 Harris En= -470.646456509030    
 JPrj=0 DoOrth=F DoCkMO=F.
 Initial guess orbital symmetries:
       Occupied  (A1) (E) (E) (B2) (A1) (E) (E) (B2) (A1) (E) (E)
                 (B2) (A1) (E) (E) (B2) (B1) (A1) (B2) (E) (E)
                 (A2) (E) (E) (B1) (A1)
       Virtual   (E) (E) (B2) (A1) (B2) (E) (E) (B2) (E) (E) (A1)
                 (B1) (A1) (E) (E) (B2) (A2) (E) (E) (E) (E) (B2)
                 (B1) (A1) (E) (E) (B2) (A1) (E) (E) (B2) (A1)
 The electronic state of the initial guess is 1-A1.
 Leave Link  401 at Sat Oct 18 12:15:29 2025, MaxMem=  4294967296 cpu:               0.6 elap:               0.1
 (Enter /opt/modules/software/gaussian/G16-C01/l502.exe)
 Keep R1 ints in memory in symmetry-blocked form, NReq=8551356.
 FoFCou: FMM=F IPFlag=           0 FMFlag=           0 FMFlg1=           0
         NFxFlg=           0 DoJE=F BraDBF=F KetDBF=F FulRan=T
         wScrn=  0.000000 ICntrl=       600 IOpCl=  0 I1Cent=           0 NGrid=           0
         NMat0=    1 NMatS0=   1711 NMatT0=    0 NMatD0=    1 NMtDS0=    0 NMtDT0=    0
 Petite list used in FoFCou.
 Closed shell SCF:
 Using DIIS extrapolation, IDIIS=  1040.
 NGot=  4294967296 LenX=  4294577260 LenY=  4294573219
 Requested convergence on RMS density matrix=1.00D-08 within  20 cycles.
 Requested convergence on MAX density matrix=1.00D-06.
 Requested convergence on             energy=1.00D-06.
 No special actions if energy rises.

 Cycle   1  Pass 1  IDiag  1:
 E= -464.064947314725    
 DIIS: error= 4.13D-01 at cycle   1 NSaved=   1.
 NSaved= 1 IEnMin= 1 EnMin= -464.064947314725     IErMin= 1 ErrMin= 4.13D-01
 ErrMax= 4.13D-01  0.00D+00 EMaxC= 1.00D-01 BMatC= 5.57D+00 BMatP= 5.57D+00
 IDIUse=3 WtCom= 0.00D+00 WtEn= 1.00D+00
 Coeff-Com:  0.100D+01
 Coeff-En:   0.100D+01
 Coeff:      0.100D+01
 Gap=     0.076 Goal=   None    Shift=    0.000
 GapD=    0.076 DampG=0.500 DampE=0.125 DampFc=0.1250 IDamp=-1.
 Damping current iteration by 1.25D-01
 RMSDP=6.87D-02 MaxDP=9.76D-01              OVMax= 9.24D-01

 Cycle   2  Pass 1  IDiag  1:
 E= -466.028720315479     Delta-E=       -1.963773000754 Rises=F Damp=T
 DIIS: error= 2.65D-01 at cycle   2 NSaved=   2.
 NSaved= 2 IEnMin= 2 EnMin= -466.028720315479     IErMin= 2 ErrMin= 2.65D-01
 ErrMax= 2.65D-01  0.00D+00 EMaxC= 1.00D-01 BMatC= 2.20D+00 BMatP= 5.57D+00
 IDIUse=3 WtCom= 0.00D+00 WtEn= 1.00D+00
 Coeff-Com: -0.163D+01 0.263D+01
 Coeff-En:   0.000D+00 0.100D+01
 Coeff:      0.000D+00 0.100D+01
 Gap=     0.029 Goal=   None    Shift=    0.000
 RMSDP=4.32D-02 MaxDP=8.23D-01 DE=-1.96D+00 OVMax= 2.84D-01

 Cycle   3  Pass 1  IDiag  1:
 E= -461.011185212037     Delta-E=        5.017535103442 Rises=F Damp=F
 DIIS: error= 3.09D-01 at cycle   3 NSaved=   3.
 NSaved= 3 IEnMin= 2 EnMin= -466.028720315479     IErMin= 2 ErrMin= 2.65D-01
 ErrMax= 3.09D-01  0.00D+00 EMaxC= 1.00D-01 BMatC= 6.22D+00 BMatP= 2.20D+00
 IDIUse=2 WtCom= 0.00D+00 WtEn= 1.00D+00
 EnCoef did   100 forward-backward iterations
 Coeff-En:   0.556D+00 0.159D-01 0.428D+00
 Coeff:      0.556D+00 0.159D-01 0.428D+00
 Gap=    -0.015 Goal=   None    Shift=    0.000
 RMSDP=3.09D-02 MaxDP=5.60D-01 DE= 5.02D+00 OVMax= 2.60D-01

 Cycle   4  Pass 1  IDiag  1:
 E= -467.192225321765     Delta-E=       -6.181040109729 Rises=F Damp=F
 DIIS: error= 2.00D-01 at cycle   4 NSaved=   4.
 NSaved= 4 IEnMin= 4 EnMin= -467.192225321765     IErMin= 4 ErrMin= 2.00D-01
 ErrMax= 2.00D-01  0.00D+00 EMaxC= 1.00D-01 BMatC= 1.56D+00 BMatP= 2.20D+00
 IDIUse=3 WtCom= 0.00D+00 WtEn= 1.00D+00
 EnCoef did   100 forward-backward iterations
 Coeff-Com: -0.159D+01 0.251D+01-0.152D+00 0.228D+00
 Coeff-En:   0.368D+00 0.839D-02 0.000D+00 0.623D+00
 Coeff:      0.368D+00 0.839D-02 0.000D+00 0.623D+00
 Gap=     0.010 Goal=   None    Shift=    0.000
 RMSDP=3.50D-02 MaxDP=5.53D-01 DE=-6.18D+00 OVMax= 9.98D-01

 Cycle   5  Pass 1  IDiag  1:
 E= -468.655710947418     Delta-E=       -1.463485625653 Rises=F Damp=F
 DIIS: error= 1.49D-01 at cycle   5 NSaved=   5.
 NSaved= 5 IEnMin= 5 EnMin= -468.655710947418     IErMin= 5 ErrMin= 1.49D-01
 ErrMax= 1.49D-01  0.00D+00 EMaxC= 1.00D-01 BMatC= 1.08D+00 BMatP= 1.56D+00
 IDIUse=3 WtCom= 0.00D+00 WtEn= 1.00D+00
 Coeff-Com: -0.161D+01 0.256D+01-0.150D+00 0.223D+00-0.221D-01
 Coeff-En:   0.000D+00 0.000D+00 0.000D+00 0.334D+00 0.666D+00
 Coeff:      0.000D+00 0.000D+00 0.000D+00 0.334D+00 0.666D+00
 Gap=     0.028 Goal=   None    Shift=    0.000
 RMSDP=1.22D-02 MaxDP=2.63D-01 DE=-1.46D+00 OVMax= 2.87D-01

 Cycle   6  Pass 1  IDiag  1:
 E= -469.301310449030     Delta-E=       -0.645599501612 Rises=F Damp=F
 DIIS: error= 4.38D-02 at cycle   6 NSaved=   6.
 NSaved= 6 IEnMin= 6 EnMin= -469.301310449030     IErMin= 6 ErrMin= 4.38D-02
 ErrMax= 4.38D-02  0.00D+00 EMaxC= 1.00D-01 BMatC= 1.25D-01 BMatP= 1.08D+00
 IDIUse=3 WtCom= 5.62D-01 WtEn= 4.38D-01
 Coeff-Com: -0.248D+00 0.343D+00-0.115D-01-0.218D-01 0.251D+00 0.688D+00
 Coeff-En:   0.000D+00 0.000D+00 0.000D+00 0.000D+00 0.205D+00 0.795D+00
 Coeff:     -0.139D+00 0.192D+00-0.646D-02-0.123D-01 0.230D+00 0.735D+00
 Gap=     0.074 Goal=   None    Shift=    0.000
 RMSDP=3.19D-03 MaxDP=3.39D-02 DE=-6.46D-01 OVMax= 5.19D-02

 Cycle   7  Pass 1  IDiag  1:
 E= -469.344433915583     Delta-E=       -0.043123466553 Rises=F Damp=F
 DIIS: error= 4.06D-02 at cycle   7 NSaved=   7.
 NSaved= 7 IEnMin= 7 EnMin= -469.344433915583     IErMin= 7 ErrMin= 4.06D-02
 ErrMax= 4.06D-02  0.00D+00 EMaxC= 1.00D-01 BMatC= 7.67D-02 BMatP= 1.25D-01
 IDIUse=3 WtCom= 5.94D-01 WtEn= 4.06D-01
 Coeff-Com: -0.843D-01 0.103D+00-0.222D-02-0.316D-01 0.245D+00 0.585D+00
 Coeff-Com:  0.185D+00
 Coeff-En:   0.000D+00 0.000D+00 0.000D+00 0.000D+00 0.145D+00 0.000D+00
 Coeff-En:   0.855D+00
 Coeff:     -0.501D-01 0.615D-01-0.132D-02-0.188D-01 0.205D+00 0.348D+00
 Coeff:      0.457D+00
 Gap=     0.089 Goal=   None    Shift=    0.000
 RMSDP=3.36D-03 MaxDP=7.16D-02 DE=-4.31D-02 OVMax= 8.54D-02

 Cycle   8  Pass 1  IDiag  1:
 E= -469.381784504808     Delta-E=       -0.037350589225 Rises=F Damp=F
 DIIS: error= 2.05D-02 at cycle   8 NSaved=   8.
 NSaved= 8 IEnMin= 8 EnMin= -469.381784504808     IErMin= 8 ErrMin= 2.05D-02
 ErrMax= 2.05D-02  0.00D+00 EMaxC= 1.00D-01 BMatC= 2.18D-02 BMatP= 7.67D-02
 IDIUse=3 WtCom= 7.95D-01 WtEn= 2.05D-01
 Coeff-Com: -0.545D-01 0.769D-01-0.230D-02-0.422D-02 0.546D-03-0.841D-01
 Coeff-Com:  0.401D+00 0.667D+00
 Coeff-En:   0.000D+00 0.000D+00 0.000D+00 0.000D+00 0.000D+00 0.000D+00
 Coeff-En:   0.320D+00 0.680D+00
 Coeff:     -0.433D-01 0.612D-01-0.183D-02-0.336D-02 0.434D-03-0.669D-01
 Coeff:      0.384D+00 0.669D+00
 Gap=     0.081 Goal=   None    Shift=    0.000
 RMSDP=2.30D-03 MaxDP=4.83D-02 DE=-3.74D-02 OVMax= 6.06D-02

 Cycle   9  Pass 1  IDiag  1:
 E= -469.384076733015     Delta-E=       -0.002292228207 Rises=F Damp=F
 DIIS: error= 2.01D-02 at cycle   9 NSaved=   9.
 NSaved= 9 IEnMin= 9 EnMin= -469.384076733015     IErMin= 9 ErrMin= 2.01D-02
 ErrMax= 2.01D-02  0.00D+00 EMaxC= 1.00D-01 BMatC= 1.96D-02 BMatP= 2.18D-02
 IDIUse=3 WtCom= 7.99D-01 WtEn= 2.01D-01
 Coeff-Com: -0.397D-01 0.576D-01-0.187D-02-0.159D-02 0.415D-02-0.729D-01
 Coeff-Com:  0.117D-02 0.453D+00 0.600D+00
 Coeff-En:   0.000D+00 0.000D+00 0.000D+00 0.000D+00 0.000D+00 0.000D+00
 Coeff-En:   0.000D+00 0.475D+00 0.525D+00
 Coeff:     -0.317D-01 0.460D-01-0.149D-02-0.127D-02 0.332D-02-0.582D-01
 Coeff:      0.935D-03 0.457D+00 0.585D+00
 Gap=     0.084 Goal=   None    Shift=    0.000
 RMSDP=5.28D-04 MaxDP=9.08D-03 DE=-2.29D-03 OVMax= 1.23D-02

 Cycle  10  Pass 1  IDiag  1:
 E= -469.391900613039     Delta-E=       -0.007823880024 Rises=F Damp=F
 DIIS: error= 1.27D-02 at cycle  10 NSaved=  10.
 NSaved=10 IEnMin=10 EnMin= -469.391900613039     IErMin=10 ErrMin= 1.27D-02
 ErrMax= 1.27D-02  0.00D+00 EMaxC= 1.00D-01 BMatC= 7.92D-03 BMatP= 1.96D-02
 IDIUse=3 WtCom= 8.73D-01 WtEn= 1.27D-01
 Coeff-Com:  0.624D-03 0.165D-03 0.571D-04 0.562D-03-0.132D-03 0.366D-01
 Coeff-Com:  0.188D+00-0.366D-01-0.272D+01 0.353D+01
 Coeff-En:   0.000D+00 0.000D+00 0.000D+00 0.000D+00 0.000D+00 0.000D+00
 Coeff-En:   0.000D+00 0.336D+00 0.000D+00 0.664D+00
 Coeff:      0.544D-03 0.144D-03 0.498D-04 0.490D-03-0.115D-03 0.319D-01
 Coeff:      0.164D+00 0.108D-01-0.237D+01 0.316D+01
 Gap=     0.089 Goal=   None    Shift=    0.000
 RMSDP=9.16D-04 MaxDP=1.76D-02 DE=-7.82D-03 OVMax= 1.99D-02

 Cycle  11  Pass 1  IDiag  1:
 E= -469.397033035867     Delta-E=       -0.005132422828 Rises=F Damp=F
 DIIS: error= 1.52D-03 at cycle  11 NSaved=  11.
 NSaved=11 IEnMin=11 EnMin= -469.397033035867     IErMin=11 ErrMin= 1.52D-03
 ErrMax= 1.52D-03  0.00D+00 EMaxC= 1.00D-01 BMatC= 1.23D-04 BMatP= 7.92D-03
 IDIUse=3 WtCom= 9.85D-01 WtEn= 1.52D-02
 Coeff-Com:  0.338D-02-0.434D-02 0.695D-04 0.662D-03-0.201D-02 0.136D-01
 Coeff-Com: -0.720D-02-0.431D-01-0.521D+00 0.810D+00 0.750D+00
 Coeff-En:   0.000D+00 0.000D+00 0.000D+00 0.000D+00 0.000D+00 0.000D+00
 Coeff-En:   0.000D+00 0.000D+00 0.000D+00 0.444D-01 0.956D+00
 Coeff:      0.333D-02-0.428D-02 0.684D-04 0.652D-03-0.198D-02 0.134D-01
 Coeff:     -0.709D-02-0.425D-01-0.513D+00 0.798D+00 0.753D+00
 Gap=     0.089 Goal=   None    Shift=    0.000
 RMSDP=8.58D-05 MaxDP=6.78D-04 DE=-5.13D-03 OVMax= 2.46D-03

 Cycle  12  Pass 1  IDiag  1:
 E= -469.397071817001     Delta-E=       -0.000038781135 Rises=F Damp=F
 DIIS: error= 1.16D-03 at cycle  12 NSaved=  12.
 NSaved=12 IEnMin=12 EnMin= -469.397071817001     IErMin=12 ErrMin= 1.16D-03
 ErrMax= 1.16D-03  0.00D+00 EMaxC= 1.00D-01 BMatC= 6.90D-05 BMatP= 1.23D-04
 IDIUse=3 WtCom= 9.88D-01 WtEn= 1.16D-02
 Coeff-Com: -0.757D-04 0.182D-03 0.146D-04 0.318D-04-0.719D-04 0.237D-05
 Coeff-Com: -0.107D-01-0.870D-02-0.238D-01 0.132D+00-0.346D+00 0.126D+01
 Coeff-En:   0.000D+00 0.000D+00 0.000D+00 0.000D+00 0.000D+00 0.000D+00
 Coeff-En:   0.000D+00 0.000D+00 0.000D+00 0.126D-01 0.000D+00 0.987D+00
 Coeff:     -0.748D-04 0.180D-03 0.144D-04 0.314D-04-0.711D-04 0.235D-05
 Coeff:     -0.105D-01-0.859D-02-0.235D-01 0.130D+00-0.342D+00 0.125D+01
 Gap=     0.088 Goal=   None    Shift=    0.000
 RMSDP=7.20D-05 MaxDP=1.73D-03 DE=-3.88D-05 OVMax= 2.03D-03

 Cycle  13  Pass 1  IDiag  1:
 E= -469.397115182575     Delta-E=       -0.000043365574 Rises=F Damp=F
 DIIS: error= 1.55D-04 at cycle  13 NSaved=  13.
 NSaved=13 IEnMin=13 EnMin= -469.397115182575     IErMin=13 ErrMin= 1.55D-04
 ErrMax= 1.55D-04  0.00D+00 EMaxC= 1.00D-01 BMatC= 1.22D-06 BMatP= 6.90D-05
 IDIUse=3 WtCom= 9.98D-01 WtEn= 1.55D-03
 Coeff-Com:  0.436D-05-0.120D-04 0.339D-06-0.125D-05 0.221D-04-0.551D-04
 Coeff-Com:  0.112D-02 0.202D-03-0.320D-02-0.174D-02-0.223D-01 0.108D+00
 Coeff-Com:  0.917D+00
 Coeff-En:   0.000D+00 0.000D+00 0.000D+00 0.000D+00 0.000D+00 0.000D+00
 Coeff-En:   0.000D+00 0.000D+00 0.000D+00 0.000D+00 0.000D+00 0.721D-01
 Coeff-En:   0.928D+00
 Coeff:      0.435D-05-0.120D-04 0.339D-06-0.125D-05 0.220D-04-0.550D-04
 Coeff:      0.112D-02 0.202D-03-0.319D-02-0.174D-02-0.222D-01 0.108D+00
 Coeff:      0.917D+00
 Gap=     0.089 Goal=   None    Shift=    0.000
 RMSDP=9.31D-06 MaxDP=2.12D-04 DE=-4.34D-05 OVMax= 2.50D-04

 Cycle  14  Pass 1  IDiag  1:
 E= -469.397115960869     Delta-E=       -0.000000778295 Rises=F Damp=F
 DIIS: error= 1.14D-05 at cycle  14 NSaved=  14.
 NSaved=14 IEnMin=14 EnMin= -469.397115960869     IErMin=14 ErrMin= 1.14D-05
 ErrMax= 1.14D-05  0.00D+00 EMaxC= 1.00D-01 BMatC= 6.62D-09 BMatP= 1.22D-06
 IDIUse=1 WtCom= 1.00D+00 WtEn= 0.00D+00
 Coeff-Com:  0.194D-05-0.357D-05 0.192D-06-0.536D-06-0.264D-06-0.126D-06
 Coeff-Com: -0.157D-04 0.554D-04 0.110D-02-0.221D-02 0.490D-02-0.209D-01
 Coeff-Com:  0.142D-01 0.100D+01
 Coeff:      0.194D-05-0.357D-05 0.192D-06-0.536D-06-0.264D-06-0.126D-06
 Coeff:     -0.157D-04 0.554D-04 0.110D-02-0.221D-02 0.490D-02-0.209D-01
 Coeff:      0.142D-01 0.100D+01
 Gap=     0.089 Goal=   None    Shift=    0.000
 RMSDP=5.46D-07 MaxDP=1.28D-05 DE=-7.78D-07 OVMax= 1.52D-05

 Cycle  15  Pass 1  IDiag  1:
 E= -469.397115965058     Delta-E=       -0.000000004189 Rises=F Damp=F
 DIIS: error= 1.37D-06 at cycle  15 NSaved=  15.
 NSaved=15 IEnMin=15 EnMin= -469.397115965058     IErMin=15 ErrMin= 1.37D-06
 ErrMax= 1.37D-06  0.00D+00 EMaxC= 1.00D-01 BMatC= 9.55D-11 BMatP= 6.62D-09
 IDIUse=1 WtCom= 1.00D+00 WtEn= 0.00D+00
 Coeff-Com:  0.211D-06-0.352D-06-0.221D-08 0.325D-07 0.128D-07 0.814D-07
 Coeff-Com: -0.491D-05 0.179D-05-0.444D-04 0.167D-03-0.157D-03-0.154D-04
 Coeff-Com: -0.216D-02-0.459D-01 0.105D+01
 Coeff:      0.211D-06-0.352D-06-0.221D-08 0.325D-07 0.128D-07 0.814D-07
 Coeff:     -0.491D-05 0.179D-05-0.444D-04 0.167D-03-0.157D-03-0.154D-04
 Coeff:     -0.216D-02-0.459D-01 0.105D+01
 Gap=     0.089 Goal=   None    Shift=    0.000
 RMSDP=7.16D-08 MaxDP=1.54D-06 DE=-4.19D-09 OVMax= 1.74D-06

 Cycle  16  Pass 1  IDiag  1:
 E= -469.397115965118     Delta-E=       -0.000000000060 Rises=F Damp=F
 DIIS: error= 1.50D-07 at cycle  16 NSaved=  16.
 NSaved=16 IEnMin=16 EnMin= -469.397115965118     IErMin=16 ErrMin= 1.50D-07
 ErrMax= 1.50D-07  0.00D+00 EMaxC= 1.00D-01 BMatC= 1.15D-12 BMatP= 9.55D-11
 IDIUse=1 WtCom= 1.00D+00 WtEn= 0.00D+00
 Large coefficients: NSaved= 16 BigCof=    0.00 CofMax=   10.00 Det=-7.54D-16
 Inversion failed.  Reducing to 15 matrices.
 Large coefficients: NSaved= 15 BigCof=    0.00 CofMax=   10.00 Det=-7.75D-16
 Inversion failed.  Reducing to 14 matrices.
 Large coefficients: NSaved= 14 BigCof=    0.00 CofMax=   10.00 Det=-9.10D-16
 Inversion failed.  Reducing to 13 matrices.
 Large coefficients: NSaved= 13 BigCof=    0.00 CofMax=   10.00 Det=-1.03D-15
 Inversion failed.  Reducing to 12 matrices.
 Coeff-Com: -0.951D-09 0.659D-07 0.137D-05 0.169D-06 0.207D-05-0.209D-04
 Coeff-Com:  0.302D-04-0.107D-03 0.782D-03 0.301D-02-0.124D+00 0.112D+01
 Coeff:     -0.951D-09 0.659D-07 0.137D-05 0.169D-06 0.207D-05-0.209D-04
 Coeff:      0.302D-04-0.107D-03 0.782D-03 0.301D-02-0.124D+00 0.112D+01
 Gap=     0.089 Goal=   None    Shift=    0.000
 RMSDP=7.95D-09 MaxDP=1.92D-07 DE=-6.00D-11 OVMax= 2.25D-07

 SCF Done:  E(RPBE1PBE) =  -469.397115965     A.U. after   16 cycles
            NFock= 16  Conv=0.80D-08     -V/T= 2.1638
 KE= 4.033269692945D+02 PE=-1.574886042924D+03 EE= 4.842170599886D+02
 Leave Link  502 at Sat Oct 18 12:15:30 2025, MaxMem=  4294967296 cpu:               2.3 elap:               0.3
 (Enter /opt/modules/software/gaussian/G16-C01/l508.exe)
 QCSCF skips out because SCF is already converged.
 Leave Link  508 at Sat Oct 18 12:15:30 2025, MaxMem=  4294967296 cpu:               0.0 elap:               0.0
 (Enter /opt/modules/software/gaussian/G16-C01/l601.exe)
 Copying SCF densities to generalized density rwf, IOpCl= 0 IROHF=0.

 **********************************************************************

            Population analysis using the SCF Density.

 **********************************************************************

 Orbital symmetries:
       Occupied  (A1) (B2) (E) (E) (A1) (E) (E) (B2) (A1) (E) (E)
                 (B2) (B1) (A1) (E) (E) (B2) (A1) (E) (E) (B2)
                 (B1) (A1) (E) (E) (A2)
       Virtual   (E) (E) (B2) (B2) (E) (E) (A1) (E) (E) (B2) (A1)
                 (B1) (A1) (E) (E) (B2) (E) (E) (A2) (B2) (E) (E)
                 (B1) (A1) (E) (E) (B2) (A1) (E) (E) (B2) (A1)
 The electronic state is 1-A1.
 Alpha  occ. eigenvalues --  -18.85363 -18.85363 -18.85363 -18.85363  -3.82171
 Alpha  occ. eigenvalues --   -2.40740  -2.40740  -2.40740  -0.51937  -0.51016
 Alpha  occ. eigenvalues --   -0.51016  -0.51016  -0.04506  -0.04506  -0.01755
 Alpha  occ. eigenvalues --   -0.01755  -0.01755   0.03253   0.07007   0.07007
 Alpha  occ. eigenvalues --    0.07007   0.10054   0.10054   0.10164   0.10164
 Alpha  occ. eigenvalues --    0.10164
 Alpha virt. eigenvalues --    0.19017   0.19017   0.19017   0.29995   0.29995
 Alpha virt. eigenvalues --    0.29995   0.38937   0.56339   0.56339   0.56339
 Alpha virt. eigenvalues --    0.77082   0.97987   0.97987   1.01093   1.01093
 Alpha virt. eigenvalues --    1.01093   1.12015   1.12015   1.12015   1.18519
 Alpha virt. eigenvalues --    1.18519   1.18519   1.26036   1.26037   1.36739
 Alpha virt. eigenvalues --    1.36739   1.36739   1.64345   1.94217   1.94217
 Alpha virt. eigenvalues --    1.94217   3.13130
          Condensed to atoms (all electrons):
               1          2          3          4          5
     1  Ni  16.574937   0.228299   0.228299   0.228299   0.228299
     2  O    0.228299   8.380641   0.006342   0.006342   0.006342
     3  O    0.228299   0.006342   8.380641   0.006342   0.006342
     4  O    0.228299   0.006342   0.006342   8.380641   0.006342
     5  O    0.228299   0.006342   0.006342   0.006342   8.380641
 Mulliken charges:
               1
     1  Ni   0.511866
     2  O   -0.627967
     3  O   -0.627967
     4  O   -0.627967
     5  O   -0.627967
 Sum of Mulliken charges =  -2.00000
 Mulliken charges with hydrogens summed into heavy atoms:
               1
     1  Ni   0.511866
     2  O   -0.627967
     3  O   -0.627967
     4  O   -0.627967
     5  O   -0.627967
 Electronic spatial extent (au):  <R**2>=            565.7755
 Charge=             -2.0000 electrons
 Dipole moment (field-independent basis, Debye):
    X=              0.0000    Y=             -0.0000    Z=             -0.0000  Tot=              0.0000
 Quadrupole moment (field-independent basis, Debye-Ang):
   XX=            -54.9285   YY=            -54.9285   ZZ=            -54.9285
   XY=              0.0000   XZ=              0.0000   YZ=             -0.0000
 Traceless Quadrupole moment (field-independent basis, Debye-Ang):
   XX=             -0.0000   YY=             -0.0000   ZZ=              0.0000
   XY=              0.0000   XZ=              0.0000   YZ=             -0.0000
 Octapole moment (field-independent basis, Debye-Ang**2):
  XXX=             -0.0000  YYY=              0.0000  ZZZ=             -0.0000  XYY=              0.0000
  XXY=             -0.0000  XXZ=             14.7494  XZZ=              0.0000  YZZ=             -0.0000
  YYZ=            -14.7494  XYZ=             -0.0000
 Hexadecapole moment (field-independent basis, Debye-Ang**3):
 XXXX=           -272.5656 YYYY=           -272.5656 ZZZZ=           -260.6231 XXXY=              0.0000
 XXXZ=              0.0000 YYYX=              0.0000 YYYZ=              0.0000 ZZZX=              0.0000
 ZZZY=             -0.0000 XXYY=            -82.8936 XXZZ=            -94.8360 YYZZ=            -94.8360
 XXYZ=              0.0000 YYXZ=              0.0000 ZZXY=              0.0000
 N-N= 2.179448976757D+02 E-N=-1.574886056701D+03  KE= 4.033269692945D+02
 Symmetry A1   KE= 1.856833445423D+02
 Symmetry A2   KE= 2.703887481331D+01
 Symmetry B1   KE= 9.530237496945D+01
 Symmetry B2   KE= 9.530237496945D+01
 No NMR shielding tensors so no spin-rotation constants.
 Leave Link  601 at Sat Oct 18 12:15:30 2025, MaxMem=  4294967296 cpu:               0.4 elap:               0.1
 (Enter /opt/modules/software/gaussian/G16-C01/l701.exe)
 ... and contract with generalized density number  0.
 Compute integral first derivatives.
   8 Symmetry operations used in ECPInt.
 ECPInt:  NShTT=     406 NPrTT=    3130 LenC2=     401 LenP2D=    2286.
 LDataN:  DoStor=T MaxTD1= 5 Len=  102
 Leave Link  701 at Sat Oct 18 12:15:30 2025, MaxMem=  4294967296 cpu:               0.7 elap:               0.1
 (Enter /opt/modules/software/gaussian/G16-C01/l702.exe)
 L702 exits ... SP integral derivatives will be done elsewhere.
 Leave Link  702 at Sat Oct 18 12:15:30 2025, MaxMem=  4294967296 cpu:               0.1 elap:               0.0
 (Enter /opt/modules/software/gaussian/G16-C01/l703.exe)
 Integral derivatives from FoFJK, PRISM(SPDF).
 Compute integral first derivatives, UseDBF=F ICtDFT=           0.
 Calling FoFJK, ICntrl=      2127 FMM=F ISym2X=1 I1Cent= 0 IOpClX= 0 NMat=1 NMatS=1 NMatT=0.
 FoFJK:  IHMeth= 1 ICntrl=    2127 DoSepK=F KAlg= 0 I1Cent=           0 FoldK=F
 IRaf=         0 NMat=       1 IRICut=       1 DoRegI=T DoRafI=F ISym2E= 1 IDoP0=0 IntGTp=1.
 FoFCou: FMM=F IPFlag=           0 FMFlag=      100000 FMFlg1=         800
         NFxFlg=           0 DoJE=F BraDBF=F KetDBF=F FulRan=T
         wScrn=  0.000000 ICntrl=      2127 IOpCl=  0 I1Cent=           0 NGrid=           0
         NMat0=    1 NMatS0=      1 NMatT0=    0 NMatD0=    1 NMtDS0=    0 NMtDT0=    0
 Petite list used in FoFCou.
 Leave Link  703 at Sat Oct 18 12:15:30 2025, MaxMem=  4294967296 cpu:               1.4 elap:               0.2
 (Enter /opt/modules/software/gaussian/G16-C01/l716.exe)
 Dipole        = 6.34637887D-17-3.55271368D-15-3.55271368D-15
 ***** Axes restored to original set *****
 -------------------------------------------------------------------
 Center     Atomic                   Forces (Hartrees/Bohr)
 Number     Number              X              Y              Z
 -------------------------------------------------------------------
      1       28           0.000000000    0.000000000    0.000000000
      2        8           0.051544859   -0.029760270   -0.021043678
      3        8           0.000000011    0.059519685   -0.021042569
      4        8           0.000000024    0.000000823    0.063129887
      5        8          -0.051544894   -0.029760237   -0.021043639
 -------------------------------------------------------------------
 Cartesian Forces:  Max     0.063129887 RMS     0.032600133
 Leave Link  716 at Sat Oct 18 12:15:30 2025, MaxMem=  4294967296 cpu:               0.1 elap:               0.0
 (Enter /opt/modules/software/gaussian/G16-C01/l103.exe)

 GradGradGradGradGradGradGradGradGradGradGradGradGradGradGradGradGradGrad
 Berny optimization.
 FormGI is forming the generalized inverse of G from B-inverse, IUseBI=4.
 Internal  Forces:  Max     0.063129887 RMS     0.033744344
 Search for a local minimum.
 Step number   1 out of a maximum of  100
 All quantities printed in internal units (Hartrees-Bohrs-Radians)
 RMS Force = .33744D-01 SwitMx=.10000D-02 MixMth= 1
 Mixed Optimization -- RFO/linear search
 Second derivative matrix not updated -- first step.
 The second derivative matrix:
                          R1        R2        R3        R4        A1
           R1           0.15237
           R2           0.00000   0.15237
           R3           0.00000   0.00000   0.15237
           R4           0.00000   0.00000   0.00000   0.15237
           A1           0.00000   0.00000   0.00000   0.00000   0.25000
           A2           0.00000   0.00000   0.00000   0.00000   0.00000
           A3           0.00000   0.00000   0.00000   0.00000   0.00000
           A4           0.00000   0.00000   0.00000   0.00000   0.00000
           A5           0.00000   0.00000   0.00000   0.00000   0.00000
           A6           0.00000   0.00000   0.00000   0.00000   0.00000
           D1           0.00000   0.00000   0.00000   0.00000   0.00000
           D2           0.00000   0.00000   0.00000   0.00000   0.00000
           D3           0.00000   0.00000   0.00000   0.00000   0.00000
           D4           0.00000   0.00000   0.00000   0.00000   0.00000
                          A2        A3        A4        A5        A6
           A2           0.25000
           A3           0.00000   0.25000
           A4           0.00000   0.00000   0.25000
           A5           0.00000   0.00000   0.00000   0.25000
           A6           0.00000   0.00000   0.00000   0.00000   0.25000
           D1           0.00000   0.00000   0.00000   0.00000   0.00000
           D2           0.00000   0.00000   0.00000   0.00000   0.00000
           D3           0.00000   0.00000   0.00000   0.00000   0.00000
           D4           0.00000   0.00000   0.00000   0.00000   0.00000
                          D1        D2        D3        D4
           D1           0.02495
           D2           0.00000   0.02495
           D3           0.00000   0.00000   0.02495
           D4           0.00000   0.00000   0.00000   0.02495
 ITU=  0
     Eigenvalues ---    0.09420   0.10323   0.14498   0.15237   0.15237
     Eigenvalues ---    0.15237   0.15237   0.25000   0.25000
 RFO step:  Lambda=-7.12793827D-02 EMin= 9.41951947D-02
 Linear search not attempted -- first point.
 Maximum step size (   0.300) exceeded in Quadratic search.
    -- Step size scaled by   0.531
 Iteration  1 RMS(Cart)=  0.08017837 RMS(Int)=  0.00000006
 Iteration  2 RMS(Cart)=  0.00000013 RMS(Int)=  0.00000000
 ITry= 1 IFail=0 DXMaxC= 1.50D-01 DCOld= 1.00D+10 DXMaxT= 3.00D-01 DXLimC= 3.00D+00 Rises=F
 ClnCor:  largest displacement from symmetrization is 8.80D-07 for atom     3.
 Variable       Old X    -DE/DX   Delta X   Delta X   Delta X     New X
                                 (Linear)    (Quad)   (Total)
    R1        3.72182  -0.06313   0.00000  -0.15000  -0.15000   3.57182
    R2        3.72182  -0.06313   0.00000  -0.15000  -0.15000   3.57182
    R3        3.72182  -0.06313   0.00000  -0.15000  -0.15000   3.57182
    R4        3.72182  -0.06313   0.00000  -0.15000  -0.15000   3.57182
    A1        1.91063  -0.00000   0.00000  -0.00000  -0.00000   1.91063
    A2        1.91063  -0.00000   0.00000  -0.00000  -0.00000   1.91063
    A3        1.91063   0.00000   0.00000   0.00000   0.00000   1.91064
    A4        1.91063   0.00000   0.00000   0.00000   0.00000   1.91064
    A5        1.91063  -0.00000   0.00000  -0.00000  -0.00000   1.91063
    A6        1.91063  -0.00000   0.00000  -0.00000  -0.00000   1.91063
    D1       -2.09440   0.00000   0.00000   0.00000   0.00000  -2.09439
    D2        2.09440  -0.00000   0.00000  -0.00000  -0.00000   2.09439
    D3       -2.09440   0.00000   0.00000   0.00000   0.00000  -2.09439
    D4        2.09440   0.00000   0.00000   0.00000   0.00000   2.09440
         Item               Value     Threshold  Converged?
 Maximum Force            0.063130     0.000450     NO 
 RMS     Force            0.033744     0.000300     NO 
 Maximum Displacement     0.149999     0.001800     NO 
 RMS     Displacement     0.080178     0.001200     NO 
 Predicted change in Energy=-3.102123D-02
 Lowest energy point so far.  Saving SCF results.
 GradGradGradGradGradGradGradGradGradGradGradGradGradGradGradGradGradGrad

 Leave Link  103 at Sat Oct 18 12:15:30 2025, MaxMem=  4294967296 cpu:               0.0 elap:               0.0
 (Enter /opt/modules/software/gaussian/G16-C01/l202.exe)
                          Input orientation:                          
 ---------------------------------------------------------------------
 Center     Atomic      Atomic             Coordinates (Angstroms)
 Number     Number       Type             X           Y           Z
 ---------------------------------------------------------------------
      1         28           0        1.499070   -0.865489    3.059964
      2          8           0       -0.044211    0.025523    3.690004
      3          8           0        1.499070   -2.647514    3.690009
      4          8           0        1.499069   -0.865487    1.169840
      5          8           0        3.042353    0.025522    3.690003
 ---------------------------------------------------------------------
                    Distance matrix (angstroms):
                    1          2          3          4          5
     1  Ni   0.000000
     2  O    1.890124   0.000000
     3  O    1.890124   3.086558   0.000000
     4  O    1.890124   3.086558   3.086564   0.000000
     5  O    1.890124   3.086564   3.086558   3.086558   0.000000
 Stoichiometry    NiO4(2-)
 Framework group  D2D[O(Ni),2SGD(O2)]
 Deg. of freedom     2
 Full point group                 D2D     NOp   8
 RotChk:  IX=0 Diff= 2.55D-10
 Largest Abelian subgroup         C2V     NOp   4
 Largest concise Abelian subgroup C2V     NOp   4
                         Standard orientation:                         
 ---------------------------------------------------------------------
 Center     Atomic      Atomic             Coordinates (Angstroms)
 Number     Number       Type             X           Y           Z
 ---------------------------------------------------------------------
      1         28           0        0.000000    0.000000    0.000000
      2          8           0        0.000000    1.543282    1.091261
      3          8           0       -1.543282    0.000000   -1.091261
      4          8           0        1.543282   -0.000000   -1.091261
      5          8           0        0.000000   -1.543282    1.091261
 ---------------------------------------------------------------------
 Rotational constants (GHZ):           3.3165478           3.3165478           3.3165362
 Leave Link  202 at Sat Oct 18 12:15:30 2025, MaxMem=  4294967296 cpu:               0.0 elap:               0.0
 (Enter /opt/modules/software/gaussian/G16-C01/l301.exe)
 Basis read from rwf:  (5D, 7F)
 Pseudo-potential data read from rwf file.
 There are    26 symmetry adapted cartesian basis functions of A1  symmetry.
 There are     6 symmetry adapted cartesian basis functions of A2  symmetry.
 There are    14 symmetry adapted cartesian basis functions of B1  symmetry.
 There are    14 symmetry adapted cartesian basis functions of B2  symmetry.
 There are    24 symmetry adapted basis functions of A1  symmetry.
 There are     6 symmetry adapted basis functions of A2  symmetry.
 There are    14 symmetry adapted basis functions of B1  symmetry.
 There are    14 symmetry adapted basis functions of B2  symmetry.
    58 basis functions,   152 primitive gaussians,    60 cartesian basis functions
    26 alpha electrons       26 beta electrons
       nuclear repulsion energy       227.0975533774 Hartrees.
 IExCor= 1009 DFT=T Ex+Corr=PBE1PBE ExCW=0 ScaHFX=  0.250000
 ScaDFX=  0.750000  0.750000  1.000000  1.000000 ScalE2=  1.000000  1.000000
 IRadAn=      5 IRanWt=     -1 IRanGd=            0 ICorTp=0 IEmpDi=  4
 NAtoms=    5 NActive=    5 NUniq=    2 SFac= 4.00D+00 NAtFMM=   60 NAOKFM=F Big=F
 Integral buffers will be    131072 words long.
 Raffenetti 2 integral format.
 Two-electron integral symmetry is turned on.
 No density basis found on file    724.
 Leave Link  301 at Sat Oct 18 12:15:30 2025, MaxMem=  4294967296 cpu:               0.2 elap:               0.0
 (Enter /opt/modules/software/gaussian/G16-C01/l302.exe)
 NPDir=0 NMtPBC=     1 NCelOv=     1 NCel=       1 NClECP=     1 NCelD=      1
         NCelK=      1 NCelE2=     1 NClLst=     1 CellRange=     0.0.
 One-electron integrals computed using PRISM.
 One-electron integral symmetry used in STVInt
   8 Symmetry operations used in ECPInt.
 ECPInt:  NShTT=     406 NPrTT=    3130 LenC2=     401 LenP2D=    2294.
 LDataN:  DoStor=T MaxTD1= 4 Len=   56
 NBasis=    58 RedAO= T EigKep=  3.75D-02  NBF=    24     6    14    14
 NBsUse=    58 1.00D-06 EigRej= -1.00D+00 NBFU=    24     6    14    14
 Precomputing XC quadrature grid using
 IXCGrd= 4 IRadAn=           5 IRanWt=          -1 IRanGd=           0 AccXCQ= 0.00D+00.
 Generated NRdTot=       0 NPtTot=           0 NUsed=           0 NTot=          32
 NSgBfM=    60    60    60    60    60 MxSgAt=     5 MxSgA2=     5.
 Leave Link  302 at Sat Oct 18 12:15:30 2025, MaxMem=  4294967296 cpu:               0.6 elap:               0.1
 (Enter /opt/modules/software/gaussian/G16-C01/l303.exe)
 DipDrv:  MaxL=1.
 Leave Link  303 at Sat Oct 18 12:15:30 2025, MaxMem=  4294967296 cpu:               0.1 elap:               0.0
 (Enter /opt/modules/software/gaussian/G16-C01/l401.exe)
 Initial guess from the checkpoint file:  "nio4-q2-opt.chk"
 B after Tr=     0.000000   -0.000000   -0.000000
         Rot=    1.000000    0.000000   -0.000000   -0.000000 Ang=   0.00 deg.
 Guess basis will be translated and rotated to current coordinates.
 JPrj=2 DoOrth=T DoCkMO=T.
 Initial guess orbital symmetries:
       Occupied  (A1) (B2) (E) (E) (A1) (E) (E) (B2) (A1) (E) (E)
                 (B2) (B1) (A1) (E) (E) (B2) (A1) (E) (E) (B2)
                 (B1) (A1) (E) (E) (A2)
       Virtual   (E) (E) (B2) (B2) (E) (E) (A1) (E) (E) (B2) (A1)
                 (B1) (A1) (E) (E) (B2) (E) (E) (A2) (B2) (E) (E)
                 (B1) (A1) (E) (E) (B2) (A1) (E) (E) (B2) (A1)
 The electronic state of the initial guess is 1-A1.
 Generating alternative initial guess.
 ExpMin= 2.40D-02 ExpMax= 7.82D+03 ExpMxC= 2.73D+02 IAcc=3 IRadAn=         5 AccDes= 0.00D+00
 Harris functional with IExCor= 1009 and IRadAn=       5 diagonalized for initial guess.
 HarFok:  IExCor= 1009 AccDes= 0.00D+00 IRadAn=         5 IDoV= 1 UseB2=F ITyADJ=14
 ICtDFT=  3500011 ScaDFX=  1.000000  1.000000  1.000000  1.000000
 FoFCou: FMM=F IPFlag=           0 FMFlag=      100000 FMFlg1=           0
         NFxFlg=           0 DoJE=T BraDBF=F KetDBF=T FulRan=T
         wScrn=  0.000000 ICntrl=       500 IOpCl=  0 I1Cent=   200000004 NGrid=           0
         NMat0=    1 NMatS0=      1 NMatT0=    0 NMatD0=    1 NMtDS0=    0 NMtDT0=    0
 Petite list used in FoFCou.
 Harris En= -470.690259719421    
 Leave Link  401 at Sat Oct 18 12:15:30 2025, MaxMem=  4294967296 cpu:               0.8 elap:               0.1
 (Enter /opt/modules/software/gaussian/G16-C01/l502.exe)
 Keep R1 ints in memory in symmetry-blocked form, NReq=8551356.
 FoFCou: FMM=F IPFlag=           0 FMFlag=           0 FMFlg1=           0
         NFxFlg=           0 DoJE=F BraDBF=F KetDBF=F FulRan=T
         wScrn=  0.000000 ICntrl=       600 IOpCl=  0 I1Cent=           0 NGrid=           0
         NMat0=    1 NMatS0=   1711 NMatT0=    0 NMatD0=    1 NMtDS0=    0 NMtDT0=    0
 Petite list used in FoFCou.
 Closed shell SCF:
 Using DIIS extrapolation, IDIIS=  1040.
 NGot=  4294967296 LenX=  4294577260 LenY=  4294573219
 Requested convergence on RMS density matrix=1.00D-08 within  20 cycles.
 Requested convergence on MAX density matrix=1.00D-06.
 Requested convergence on             energy=1.00D-06.
 No special actions if energy rises.

 Cycle   1  Pass 1  IDiag  1:
 E= -469.430726830355    
 DIIS: error= 7.96D-03 at cycle   1 NSaved=   1.
 NSaved= 1 IEnMin= 1 EnMin= -469.430726830355     IErMin= 1 ErrMin= 7.96D-03
 ErrMax= 7.96D-03  0.00D+00 EMaxC= 1.00D-01 BMatC= 1.53D-03 BMatP= 1.53D-03
 IDIUse=3 WtCom= 9.20D-01 WtEn= 7.96D-02
 Coeff-Com:  0.100D+01
 Coeff-En:   0.100D+01
 Coeff:      0.100D+01
 Gap=     0.102 Goal=   None    Shift=    0.000
 GapD=    0.102 DampG=1.000 DampE=1.000 DampFc=1.0000 IDamp=-1.
 RMSDP=2.28D-03 MaxDP=4.50D-02              OVMax= 5.45D-02

 Cycle   2  Pass 1  IDiag  1:
 E= -469.400606355642     Delta-E=        0.030120474712 Rises=F Damp=F
 DIIS: error= 3.09D-02 at cycle   2 NSaved=   2.
 NSaved= 2 IEnMin= 1 EnMin= -469.430726830355     IErMin= 1 ErrMin= 7.96D-03
 ErrMax= 3.09D-02  0.00D+00 EMaxC= 1.00D-01 BMatC= 5.14D-02 BMatP= 1.53D-03
 IDIUse=2 WtCom= 0.00D+00 WtEn= 1.00D+00
 Coeff-En:   0.920D+00 0.801D-01
 Coeff:      0.920D+00 0.801D-01
 Gap=     0.098 Goal=   None    Shift=    0.000
 RMSDP=1.25D-03 MaxDP=3.01D-02 DE= 3.01D-02 OVMax= 3.51D-02

 Cycle   3  Pass 1  IDiag  1:
 E= -469.430663772111     Delta-E=       -0.030057416469 Rises=F Damp=F
 DIIS: error= 7.72D-03 at cycle   3 NSaved=   3.
 NSaved= 3 IEnMin= 1 EnMin= -469.430726830355     IErMin= 3 ErrMin= 7.72D-03
 ErrMax= 7.72D-03  0.00D+00 EMaxC= 1.00D-01 BMatC= 3.24D-03 BMatP= 1.53D-03
 IDIUse=3 WtCom= 1.02D-01 WtEn= 8.98D-01
 Coeff-Com:  0.497D-01-0.309D+00 0.126D+01
 Coeff-En:   0.508D+00 0.000D+00 0.492D+00
 Coeff:      0.461D+00-0.316D-01 0.570D+00
 Gap=     0.093 Goal=   None    Shift=    0.000
 RMSDP=1.17D-03 MaxDP=2.72D-02 DE=-3.01D-02 OVMax= 3.22D-02

 Cycle   4  Pass 1  IDiag  1:
 E= -469.426678610129     Delta-E=        0.003985161983 Rises=F Damp=F
 DIIS: error= 1.31D-02 at cycle   4 NSaved=   4.
 NSaved= 4 IEnMin= 1 EnMin= -469.430726830355     IErMin= 3 ErrMin= 7.72D-03
 ErrMax= 1.31D-02  0.00D+00 EMaxC= 1.00D-01 BMatC= 9.42D-03 BMatP= 1.53D-03
 IDIUse=2 WtCom= 0.00D+00 WtEn= 1.00D+00
 Coeff-En:   0.000D+00 0.000D+00 0.648D+00 0.352D+00
 Coeff:      0.000D+00 0.000D+00 0.648D+00 0.352D+00
 Gap=     0.095 Goal=   None    Shift=    0.000
 RMSDP=6.22D-04 MaxDP=1.50D-02 DE= 3.99D-03 OVMax= 1.73D-02

 Cycle   5  Pass 1  IDiag  1:
 E= -469.432563024809     Delta-E=       -0.005884414680 Rises=F Damp=F
 DIIS: error= 2.30D-03 at cycle   5 NSaved=   5.
 NSaved= 5 IEnMin= 5 EnMin= -469.432563024809     IErMin= 5 ErrMin= 2.30D-03
 ErrMax= 2.30D-03  0.00D+00 EMaxC= 1.00D-01 BMatC= 3.23D-04 BMatP= 1.53D-03
 IDIUse=3 WtCom= 9.77D-01 WtEn= 2.30D-02
 Coeff-Com: -0.214D-01-0.436D-01 0.435D+00 0.540D-01 0.576D+00
 Coeff-En:   0.000D+00 0.000D+00 0.197D+00 0.000D+00 0.803D+00
 Coeff:     -0.209D-01-0.426D-01 0.430D+00 0.528D-01 0.581D+00
 Gap=     0.096 Goal=   None    Shift=    0.000
 RMSDP=1.56D-04 MaxDP=2.86D-03 DE=-5.88D-03 OVMax= 3.64D-03

 Cycle   6  Pass 1  IDiag  1:
 E= -469.432783384097     Delta-E=       -0.000220359288 Rises=F Damp=F
 DIIS: error= 5.47D-05 at cycle   6 NSaved=   6.
 NSaved= 6 IEnMin= 6 EnMin= -469.432783384097     IErMin= 6 ErrMin= 5.47D-05
 ErrMax= 5.47D-05  0.00D+00 EMaxC= 1.00D-01 BMatC= 2.42D-07 BMatP= 3.23D-04
 IDIUse=1 WtCom= 1.00D+00 WtEn= 0.00D+00
 Coeff-Com:  0.559D-02 0.351D-01-0.202D+00-0.194D-02-0.185D+00 0.135D+01
 Coeff:      0.559D-02 0.351D-01-0.202D+00-0.194D-02-0.185D+00 0.135D+01
 Gap=     0.096 Goal=   None    Shift=    0.000
 RMSDP=7.51D-05 MaxDP=5.47D-04 DE=-2.20D-04 OVMax= 2.30D-03

 Cycle   7  Pass 1  IDiag  1:
 E= -469.432787070670     Delta-E=       -0.000003686573 Rises=F Damp=F
 DIIS: error= 1.29D-04 at cycle   7 NSaved=   7.
 NSaved= 7 IEnMin= 7 EnMin= -469.432787070670     IErMin= 6 ErrMin= 5.47D-05
 ErrMax= 1.29D-04  0.00D+00 EMaxC= 1.00D-01 BMatC= 8.31D-07 BMatP= 2.42D-07
 IDIUse=1 WtCom= 1.00D+00 WtEn= 0.00D+00
 Coeff-Com:  0.512D-03-0.231D-03-0.132D-01 0.936D-02-0.357D-01-0.211D+00
 Coeff-Com:  0.125D+01
 Coeff:      0.512D-03-0.231D-03-0.132D-01 0.936D-02-0.357D-01-0.211D+00
 Coeff:      0.125D+01
 Gap=     0.096 Goal=   None    Shift=    0.000
 RMSDP=2.66D-05 MaxDP=1.54D-04 DE=-3.69D-06 OVMax= 8.17D-04

 Cycle   8  Pass 1  IDiag  1:
 E= -469.432787938642     Delta-E=       -0.000000867973 Rises=F Damp=F
 DIIS: error= 1.30D-05 at cycle   8 NSaved=   8.
 NSaved= 8 IEnMin= 8 EnMin= -469.432787938642     IErMin= 8 ErrMin= 1.30D-05
 ErrMax= 1.30D-05  0.00D+00 EMaxC= 1.00D-01 BMatC= 6.62D-09 BMatP= 2.42D-07
 IDIUse=1 WtCom= 1.00D+00 WtEn= 0.00D+00
 Coeff-Com: -0.137D-03-0.557D-03 0.643D-02 0.222D-02 0.294D-02-0.924D-01
 Coeff-Com:  0.125D+00 0.957D+00
 Coeff:     -0.137D-03-0.557D-03 0.643D-02 0.222D-02 0.294D-02-0.924D-01
 Coeff:      0.125D+00 0.957D+00
 Gap=     0.096 Goal=   None    Shift=    0.000
 RMSDP=3.55D-06 MaxDP=2.59D-05 DE=-8.68D-07 OVMax= 1.03D-04

 Cycle   9  Pass 1  IDiag  1:
 E= -469.432787948896     Delta-E=       -0.000000010254 Rises=F Damp=F
 DIIS: error= 2.39D-06 at cycle   9 NSaved=   9.
 NSaved= 9 IEnMin= 9 EnMin= -469.432787948896     IErMin= 9 ErrMin= 2.39D-06
 ErrMax= 2.39D-06  0.00D+00 EMaxC= 1.00D-01 BMatC= 3.09D-10 BMatP= 6.62D-09
 IDIUse=1 WtCom= 1.00D+00 WtEn= 0.00D+00
 Coeff-Com: -0.417D-05 0.726D-05-0.116D-04 0.849D-04-0.214D-04 0.345D-02
 Coeff-Com: -0.157D-01-0.296D-01 0.104D+01
 Coeff:     -0.417D-05 0.726D-05-0.116D-04 0.849D-04-0.214D-04 0.345D-02
 Coeff:     -0.157D-01-0.296D-01 0.104D+01
 Gap=     0.096 Goal=   None    Shift=    0.000
 RMSDP=2.15D-07 MaxDP=2.64D-06 DE=-1.03D-08 OVMax= 5.83D-06

 Cycle  10  Pass 1  IDiag  1:
 E= -469.432787949100     Delta-E=       -0.000000000204 Rises=F Damp=F
 DIIS: error= 2.28D-07 at cycle  10 NSaved=  10.
 NSaved=10 IEnMin=10 EnMin= -469.432787949100     IErMin=10 ErrMin= 2.28D-07
 ErrMax= 2.28D-07  0.00D+00 EMaxC= 1.00D-01 BMatC= 2.90D-12 BMatP= 3.09D-10
 IDIUse=1 WtCom= 1.00D+00 WtEn= 0.00D+00
 Coeff-Com:  0.817D-06 0.223D-07-0.271D-04-0.843D-06-0.336D-04 0.149D-03
 Coeff-Com:  0.608D-03 0.115D-03-0.870D-01 0.109D+01
 Coeff:      0.817D-06 0.223D-07-0.271D-04-0.843D-06-0.336D-04 0.149D-03
 Coeff:      0.608D-03 0.115D-03-0.870D-01 0.109D+01
 Gap=     0.096 Goal=   None    Shift=    0.000
 RMSDP=1.46D-08 MaxDP=3.14D-07 DE=-2.04D-10 OVMax= 3.72D-07

 Cycle  11  Pass 1  IDiag  1:
 E= -469.432787949103     Delta-E=       -0.000000000002 Rises=F Damp=F
 DIIS: error= 6.94D-09 at cycle  11 NSaved=  11.
 NSaved=11 IEnMin=11 EnMin= -469.432787949103     IErMin=11 ErrMin= 6.94D-09
 ErrMax= 6.94D-09  0.00D+00 EMaxC= 1.00D-01 BMatC= 2.29D-15 BMatP= 2.90D-12
 IDIUse=1 WtCom= 1.00D+00 WtEn= 0.00D+00
 Coeff-Com: -0.601D-07-0.195D-06 0.324D-05-0.400D-06 0.280D-05-0.341D-04
 Coeff-Com:  0.561D-04 0.287D-03 0.146D-02-0.759D-01 0.107D+01
 Coeff:     -0.601D-07-0.195D-06 0.324D-05-0.400D-06 0.280D-05-0.341D-04
 Coeff:      0.561D-04 0.287D-03 0.146D-02-0.759D-01 0.107D+01
 Gap=     0.096 Goal=   None    Shift=    0.000
 RMSDP=1.13D-09 MaxDP=9.07D-09 DE=-2.27D-12 OVMax= 3.44D-08

 SCF Done:  E(RPBE1PBE) =  -469.432787949     A.U. after   11 cycles
            NFock= 11  Conv=0.11D-08     -V/T= 2.1640
 KE= 4.032851717749D+02 PE=-1.593259931973D+03 EE= 4.934444188712D+02
 Leave Link  502 at Sat Oct 18 12:15:31 2025, MaxMem=  4294967296 cpu:               1.9 elap:               0.2
 (Enter /opt/modules/software/gaussian/G16-C01/l508.exe)
 QCSCF skips out because SCF is already converged.
 Leave Link  508 at Sat Oct 18 12:15:31 2025, MaxMem=  4294967296 cpu:               0.0 elap:               0.0
 (Enter /opt/modules/software/gaussian/G16-C01/l701.exe)
 ... and contract with generalized density number  0.
 Compute integral first derivatives.
   8 Symmetry operations used in ECPInt.
 ECPInt:  NShTT=     406 NPrTT=    3130 LenC2=     401 LenP2D=    2294.
 LDataN:  DoStor=T MaxTD1= 5 Len=  102
 Leave Link  701 at Sat Oct 18 12:15:31 2025, MaxMem=  4294967296 cpu:               0.7 elap:               0.1
 (Enter /opt/modules/software/gaussian/G16-C01/l702.exe)
 L702 exits ... SP integral derivatives will be done elsewhere.
 Leave Link  702 at Sat Oct 18 12:15:31 2025, MaxMem=  4294967296 cpu:               0.1 elap:               0.0
 (Enter /opt/modules/software/gaussian/G16-C01/l703.exe)
 Integral derivatives from FoFJK, PRISM(SPDF).
 Compute integral first derivatives, UseDBF=F ICtDFT=           0.
 Calling FoFJK, ICntrl=      2127 FMM=F ISym2X=1 I1Cent= 0 IOpClX= 0 NMat=1 NMatS=1 NMatT=0.
 FoFJK:  IHMeth= 1 ICntrl=    2127 DoSepK=F KAlg= 0 I1Cent=           0 FoldK=F
 IRaf=         0 NMat=       1 IRICut=       1 DoRegI=T DoRafI=F ISym2E= 1 IDoP0=0 IntGTp=1.
 FoFCou: FMM=F IPFlag=           0 FMFlag=      100000 FMFlg1=         800
         NFxFlg=           0 DoJE=F BraDBF=F KetDBF=F FulRan=T
         wScrn=  0.000000 ICntrl=      2127 IOpCl=  0 I1Cent=           0 NGrid=           0
         NMat0=    1 NMatS0=      1 NMatT0=    0 NMatD0=    1 NMtDS0=    0 NMtDT0=    0
 Petite list used in FoFCou.
 Leave Link  703 at Sat Oct 18 12:15:31 2025, MaxMem=  4294967296 cpu:               1.4 elap:               0.2
 (Enter /opt/modules/software/gaussian/G16-C01/l716.exe)
 Dipole        =-8.18563428D-16 0.00000000D+00-3.55271368D-15
 ***** Axes restored to original set *****
 -------------------------------------------------------------------
 Center     Atomic                   Forces (Hartrees/Bohr)
 Number     Number              X              Y              Z
 -------------------------------------------------------------------
      1       28           0.000000000    0.000000000    0.000000000
      2        8           0.044655858   -0.025784954   -0.018232707
      3        8           0.000000010    0.051567005   -0.018228689
      4        8           0.000000021    0.000002875    0.054694068
      5        8          -0.044655888   -0.025784926   -0.018232673
 -------------------------------------------------------------------
 Cartesian Forces:  Max     0.054694068 RMS     0.028243895
 Leave Link  716 at Sat Oct 18 12:15:31 2025, MaxMem=  4294967296 cpu:               0.1 elap:               0.0
 (Enter /opt/modules/software/gaussian/G16-C01/l103.exe)

 GradGradGradGradGradGradGradGradGradGradGradGradGradGradGradGradGradGrad
 Berny optimization.
 Using GEDIIS/GDIIS optimizer.
 FormGI is forming the generalized inverse of G from B-inverse, IUseBI=4.
 Internal  Forces:  Max     0.054694068 RMS     0.029235209
 Search for a local minimum.
 Step number   2 out of a maximum of  100
 All quantities printed in internal units (Hartrees-Bohrs-Radians)
 RMS Force = .29235D-01 SwitMx=.10000D-02 MixMth= 1
 Mixed Optimization -- RFO/linear search
 Update second derivatives using D2CorX and points    1    2
 DE= -3.57D-02 DEPred=-3.10D-02 R= 1.15D+00
 TightC=F SS=  1.41D+00  RLast= 3.00D-01 DXNew= 5.0454D-01 9.0000D-01
 Trust test= 1.15D+00 RLast= 3.00D-01 DXMaxT set to 5.05D-01
 The second derivative matrix:
                          R1        R2        R3        R4        A1
           R1           0.12834
           R2          -0.02403   0.12834
           R3          -0.02403  -0.02403   0.12834
           R4          -0.02403  -0.02403  -0.02403   0.12834
           A1          -0.00000  -0.00000  -0.00000  -0.00000   0.25000
           A2          -0.00000  -0.00000  -0.00000  -0.00000   0.00000
           A3           0.00001   0.00001   0.00001   0.00001  -0.00000
           A4           0.00001   0.00001   0.00001   0.00001  -0.00000
           A5          -0.00001  -0.00001  -0.00001  -0.00001   0.00000
           A6          -0.00001  -0.00001  -0.00001  -0.00001   0.00000
           D1           0.00000   0.00000   0.00000   0.00000  -0.00000
           D2          -0.00000  -0.00000  -0.00000  -0.00000   0.00000
           D3           0.00000   0.00000   0.00000   0.00000  -0.00000
           D4           0.00000   0.00000   0.00000   0.00000  -0.00000
                          A2        A3        A4        A5        A6
           A2           0.25000
           A3          -0.00000   0.25000
           A4          -0.00000   0.00000   0.25000
           A5           0.00000  -0.00000  -0.00000   0.25000
           A6           0.00000  -0.00000  -0.00000   0.00000   0.25000
           D1          -0.00000   0.00000   0.00000  -0.00000  -0.00000
           D2           0.00000  -0.00000  -0.00000   0.00000   0.00000
           D3          -0.00000   0.00000   0.00000  -0.00000  -0.00000
           D4          -0.00000   0.00000   0.00000  -0.00000  -0.00000
                          D1        D2        D3        D4
           D1           0.02495
           D2          -0.00000   0.02495
           D3           0.00000  -0.00000   0.02495
           D4           0.00000  -0.00000   0.00000   0.02495
 ITU=  1  0
 Use linear search instead of GDIIS.
 Linear search step of   0.600 exceeds DXMaxT=   0.505 but not scaled.
 Quartic linear search produced a step of  2.00000.
 Iteration  1 RMS(Cart)=  0.10690450 RMS(Int)=  0.05345167
 Iteration  2 RMS(Cart)=  0.05345167 RMS(Int)=  0.00000001
 Iteration  3 RMS(Cart)=  0.00000001 RMS(Int)=  0.00000000
 ITry= 1 IFail=0 DXMaxC= 3.00D-01 DCOld= 1.00D+10 DXMaxT= 5.05D-01 DXLimC= 3.00D+00 Rises=F
 ClnCor:  largest displacement from symmetrization is 1.17D-11 for atom     3.
 Variable       Old X    -DE/DX   Delta X   Delta X   Delta X     New X
                                 (Linear)    (Quad)   (Total)
    R1        3.57182  -0.05469  -0.30000   0.00000  -0.30000   3.27182
    R2        3.57182  -0.05469  -0.30000   0.00000  -0.30000   3.27182
    R3        3.57182  -0.05469  -0.30000   0.00000  -0.30000   3.27182
    R4        3.57182  -0.05469  -0.30000   0.00000  -0.30000   3.27182
    A1        1.91063  -0.00000  -0.00000   0.00000  -0.00000   1.91063
    A2        1.91063  -0.00000  -0.00000   0.00000  -0.00000   1.91063
    A3        1.91064   0.00001   0.00001   0.00000   0.00001   1.91064
    A4        1.91064   0.00001   0.00001   0.00000   0.00001   1.91064
    A5        1.91063  -0.00000  -0.00000   0.00000  -0.00000   1.91063
    A6        1.91063  -0.00000  -0.00000   0.00000  -0.00000   1.91063
    D1       -2.09439   0.00000   0.00000   0.00000   0.00000  -2.09439
    D2        2.09439  -0.00000  -0.00000   0.00000  -0.00000   2.09439
    D3       -2.09439   0.00000   0.00000   0.00000   0.00000  -2.09439
    D4        2.09440   0.00000   0.00000   0.00000   0.00000   2.09440
         Item               Value     Threshold  Converged?
 Maximum Force            0.054694     0.000450     NO 
 RMS     Force            0.029235     0.000300     NO 
 Maximum Displacement     0.299999     0.001800     NO 
 RMS     Displacement     0.160356     0.001200     NO 
 Predicted change in Energy=-5.550970D-02
 Lowest energy point so far.  Saving SCF results.
 GradGradGradGradGradGradGradGradGradGradGradGradGradGradGradGradGradGrad

 Leave Link  103 at Sat Oct 18 12:15:31 2025, MaxMem=  4294967296 cpu:               0.0 elap:               0.0
 (Enter /opt/modules/software/gaussian/G16-C01/l202.exe)
                          Input orientation:                          
 ---------------------------------------------------------------------
 Center     Atomic      Atomic             Coordinates (Angstroms)
 Number     Number       Type             X           Y           Z
 ---------------------------------------------------------------------
      1         28           0        1.499070   -0.865489    3.059964
      2          8           0        0.085407   -0.049317    3.637084
      3          8           0        1.499070   -2.497839    3.637097
      4          8           0        1.499069   -0.865481    1.328592
      5          8           0        2.912735   -0.049318    3.637083
 ---------------------------------------------------------------------
                    Distance matrix (angstroms):
                    1          2          3          4          5
     1  Ni   0.000000
     2  O    1.731372   0.000000
     3  O    1.731372   2.827314   0.000000
     4  O    1.731372   2.827314   2.827328   0.000000
     5  O    1.731372   2.827328   2.827314   2.827314   0.000000
 Stoichiometry    NiO4(2-)
 Framework group  D2D[O(Ni),2SGD(O2)]
 Deg. of freedom     2
 Full point group                 D2D     NOp   8
 RotChk:  IX=0 Diff= 2.01D-11
 Largest Abelian subgroup         C2V     NOp   4
 Largest concise Abelian subgroup C2V     NOp   4
                         Standard orientation:                         
 ---------------------------------------------------------------------
 Center     Atomic      Atomic             Coordinates (Angstroms)
 Number     Number       Type             X           Y           Z
 ---------------------------------------------------------------------
      1         28           0        0.000000    0.000000    0.000000
      2          8           0       -0.000000    1.413664    0.999601
      3          8           0       -1.413664    0.000000   -0.999601
      4          8           0        1.413664   -0.000000   -0.999601
      5          8           0       -0.000000   -1.413664    0.999601
 ---------------------------------------------------------------------
 Rotational constants (GHZ):           3.9526406           3.9526406           3.9526002
 Leave Link  202 at Sat Oct 18 12:15:31 2025, MaxMem=  4294967296 cpu:               0.0 elap:               0.0
 (Enter /opt/modules/software/gaussian/G16-C01/l301.exe)
 Basis read from rwf:  (5D, 7F)
 Pseudo-potential data read from rwf file.
 There are    26 symmetry adapted cartesian basis functions of A1  symmetry.
 There are     6 symmetry adapted cartesian basis functions of A2  symmetry.
 There are    14 symmetry adapted cartesian basis functions of B1  symmetry.
 There are    14 symmetry adapted cartesian basis functions of B2  symmetry.
 There are    24 symmetry adapted basis functions of A1  symmetry.
 There are     6 symmetry adapted basis functions of A2  symmetry.
 There are    14 symmetry adapted basis functions of B1  symmetry.
 There are    14 symmetry adapted basis functions of B2  symmetry.
    58 basis functions,   152 primitive gaussians,    60 cartesian basis functions
    26 alpha electrons       26 beta electrons
       nuclear repulsion energy       247.9205349871 Hartrees.
 IExCor= 1009 DFT=T Ex+Corr=PBE1PBE ExCW=0 ScaHFX=  0.250000
 ScaDFX=  0.750000  0.750000  1.000000  1.000000 ScalE2=  1.000000  1.000000
 IRadAn=      5 IRanWt=     -1 IRanGd=            0 ICorTp=0 IEmpDi=  4
 NAtoms=    5 NActive=    5 NUniq=    2 SFac= 4.00D+00 NAtFMM=   60 NAOKFM=F Big=F
 Integral buffers will be    131072 words long.
 Raffenetti 2 integral format.
 Two-electron integral symmetry is turned on.
 No density basis found on file    724.
 Leave Link  301 at Sat Oct 18 12:15:31 2025, MaxMem=  4294967296 cpu:               0.2 elap:               0.0
 (Enter /opt/modules/software/gaussian/G16-C01/l302.exe)
 NPDir=0 NMtPBC=     1 NCelOv=     1 NCel=       1 NClECP=     1 NCelD=      1
         NCelK=      1 NCelE2=     1 NClLst=     1 CellRange=     0.0.
 One-electron integrals computed using PRISM.
 One-electron integral symmetry used in STVInt
   8 Symmetry operations used in ECPInt.
 ECPInt:  NShTT=     406 NPrTT=    3130 LenC2=     407 LenP2D=    2344.
 LDataN:  DoStor=T MaxTD1= 4 Len=   56
 NBasis=    58 RedAO= T EigKep=  2.09D-02  NBF=    24     6    14    14
 NBsUse=    58 1.00D-06 EigRej= -1.00D+00 NBFU=    24     6    14    14
 Precomputing XC quadrature grid using
 IXCGrd= 4 IRadAn=           5 IRanWt=          -1 IRanGd=           0 AccXCQ= 0.00D+00.
 Generated NRdTot=       0 NPtTot=           0 NUsed=           0 NTot=          32
 NSgBfM=    60    60    60    60    60 MxSgAt=     5 MxSgA2=     5.
 Leave Link  302 at Sat Oct 18 12:15:31 2025, MaxMem=  4294967296 cpu:               0.6 elap:               0.1
 (Enter /opt/modules/software/gaussian/G16-C01/l303.exe)
 DipDrv:  MaxL=1.
 Leave Link  303 at Sat Oct 18 12:15:31 2025, MaxMem=  4294967296 cpu:               0.1 elap:               0.0
 (Enter /opt/modules/software/gaussian/G16-C01/l401.exe)
 Initial guess from the checkpoint file:  "nio4-q2-opt.chk"
 B after Tr=     0.000000    0.000000   -0.000000
         Rot=    1.000000    0.000000   -0.000000    0.000000 Ang=   0.00 deg.
 Guess basis will be translated and rotated to current coordinates.
 JPrj=2 DoOrth=T DoCkMO=T.
 Initial guess orbital symmetries:
       Occupied  (A1) (E) (E) (B2) (A1) (E) (E) (B2) (A1) (E) (E)
                 (B2) (B1) (A1) (B2) (E) (E) (A1) (E) (E) (B2)
                 (A1) (B1) (E) (E) (A2)
       Virtual   (E) (E) (B2) (B2) (E) (E) (A1) (E) (E) (B2) (A1)
                 (B1) (A1) (E) (E) (B2) (E) (E) (A2) (E) (E) (B2)
                 (B1) (A1) (B2) (E) (E) (A1) (B2) (E) (E) (A1)
 The electronic state of the initial guess is 1-A1.
 Generating alternative initial guess.
 ExpMin= 2.40D-02 ExpMax= 7.82D+03 ExpMxC= 2.73D+02 IAcc=3 IRadAn=         5 AccDes= 0.00D+00
 Harris functional with IExCor= 1009 and IRadAn=       5 diagonalized for initial guess.
 HarFok:  IExCor= 1009 AccDes= 0.00D+00 IRadAn=         5 IDoV= 1 UseB2=F ITyADJ=14
 ICtDFT=  3500011 ScaDFX=  1.000000  1.000000  1.000000  1.000000
 FoFCou: FMM=F IPFlag=           0 FMFlag=      100000 FMFlg1=           0
         NFxFlg=           0 DoJE=T BraDBF=F KetDBF=T FulRan=T
         wScrn=  0.000000 ICntrl=       500 IOpCl=  0 I1Cent=   200000004 NGrid=           0
         NMat0=    1 NMatS0=      1 NMatT0=    0 NMatD0=    1 NMtDS0=    0 NMtDT0=    0
 Petite list used in FoFCou.
 Harris En= -470.751735160582    
 Leave Link  401 at Sat Oct 18 12:15:31 2025, MaxMem=  4294967296 cpu:               0.8 elap:               0.1
 (Enter /opt/modules/software/gaussian/G16-C01/l502.exe)
 Keep R1 ints in memory in symmetry-blocked form, NReq=8551356.
 FoFCou: FMM=F IPFlag=           0 FMFlag=           0 FMFlg1=           0
         NFxFlg=           0 DoJE=F BraDBF=F KetDBF=F FulRan=T
         wScrn=  0.000000 ICntrl=       600 IOpCl=  0 I1Cent=           0 NGrid=           0
         NMat0=    1 NMatS0=   1711 NMatT0=    0 NMatD0=    1 NMtDS0=    0 NMtDT0=    0
 Petite list used in FoFCou.
 Closed shell SCF:
 Using DIIS extrapolation, IDIIS=  1040.
 NGot=  4294967296 LenX=  4294577260 LenY=  4294573219
 Requested convergence on RMS density matrix=1.00D-08 within  20 cycles.
 Requested convergence on MAX density matrix=1.00D-06.
 Requested convergence on             energy=1.00D-06.
 No special actions if energy rises.

 Cycle   1  Pass 1  IDiag  1:
 E= -469.464791484331    
 DIIS: error= 2.87D-02 at cycle   1 NSaved=   1.
 NSaved= 1 IEnMin= 1 EnMin= -469.464791484331     IErMin= 1 ErrMin= 2.87D-02
 ErrMax= 2.87D-02  0.00D+00 EMaxC= 1.00D-01 BMatC= 1.27D-02 BMatP= 1.27D-02
 IDIUse=3 WtCom= 7.13D-01 WtEn= 2.87D-01
 Coeff-Com:  0.100D+01
 Coeff-En:   0.100D+01
 Coeff:      0.100D+01
 Recover alternate guess density for next cycle.
 RMSDP=1.95D-02 MaxDP=4.06D-01              OVMax= 0.00D+00

 Cycle   2  Pass 1  IDiag  1:
 E= -465.512690190721     Delta-E=        3.952101293610 Rises=F Damp=F
 Switch densities from cycles 1 and 2 for lowest energy.
 DIIS: error= 3.34D-01 at cycle   2 NSaved=   2.
 NSaved= 2 IEnMin= 1 EnMin= -469.464791484331     IErMin= 1 ErrMin= 2.87D-02
 ErrMax= 3.34D-01  0.00D+00 EMaxC= 1.00D+00 BMatC= 4.95D+00 BMatP= 1.27D-02
 IDIUse=1 WtCom= 1.00D+00 WtEn= 0.00D+00
 Coeff-Com:  0.975D+00 0.254D-01
 Coeff:      0.975D+00 0.254D-01
 Gap=     0.118 Goal=   None    Shift=    0.000
 RMSDP=2.94D-03 MaxDP=2.72D-02 DE= 3.95D+00 OVMax= 1.55D-02

 Cycle   3  Pass 1  IDiag  1:
 E= -469.476135175614     Delta-E=       -3.963444984893 Rises=F Damp=F
 DIIS: error= 1.14D-03 at cycle   3 NSaved=   3.
 NSaved= 3 IEnMin= 3 EnMin= -469.476135175614     IErMin= 3 ErrMin= 1.14D-03
 ErrMax= 1.14D-03  0.00D+00 EMaxC= 1.00D+00 BMatC= 1.18D-04 BMatP= 1.27D-02
 IDIUse=1 WtCom= 1.00D+00 WtEn= 0.00D+00
 Coeff-Com: -0.867D-02 0.104D-02 0.101D+01
 Coeff:     -0.867D-02 0.104D-02 0.101D+01
 Gap=     0.113 Goal=   None    Shift=    0.000
 RMSDP=4.40D-04 MaxDP=4.78D-03 DE=-3.96D+00 OVMax= 7.35D-03

 Cycle   4  Pass 1  IDiag  1:
 E= -469.476168259509     Delta-E=       -0.000033083895 Rises=F Damp=F
 DIIS: error= 1.98D-03 at cycle   4 NSaved=   4.
 NSaved= 4 IEnMin= 4 EnMin= -469.476168259509     IErMin= 3 ErrMin= 1.14D-03
 ErrMax= 1.98D-03  0.00D+00 EMaxC= 1.00D+00 BMatC= 2.60D-04 BMatP= 1.18D-04
 IDIUse=1 WtCom= 1.00D+00 WtEn= 0.00D+00
 Coeff-Com: -0.168D-01-0.175D-02 0.563D+00 0.455D+00
 Coeff:     -0.168D-01-0.175D-02 0.563D+00 0.455D+00
 Gap=     0.113 Goal=   None    Shift=    0.000
 RMSDP=1.63D-04 MaxDP=2.39D-03 DE=-3.31D-05 OVMax= 2.46D-03

 Cycle   5  Pass 1  IDiag  1:
 E= -469.476355832441     Delta-E=       -0.000187572932 Rises=F Damp=F
 DIIS: error= 2.89D-04 at cycle   5 NSaved=   5.
 NSaved= 5 IEnMin= 5 EnMin= -469.476355832441     IErMin= 5 ErrMin= 2.89D-04
 ErrMax= 2.89D-04  0.00D+00 EMaxC= 1.00D+00 BMatC= 5.39D-06 BMatP= 1.18D-04
 IDIUse=1 WtCom= 1.00D+00 WtEn= 0.00D+00
 Coeff-Com:  0.300D-02-0.666D-03-0.119D+00-0.131D+00 0.125D+01
 Coeff:      0.300D-02-0.666D-03-0.119D+00-0.131D+00 0.125D+01
 Gap=     0.112 Goal=   None    Shift=    0.000
 RMSDP=8.65D-05 MaxDP=6.12D-04 DE=-1.88D-04 OVMax= 2.57D-03

 Cycle   6  Pass 1  IDiag  1:
 E= -469.476364227411     Delta-E=       -0.000008394970 Rises=F Damp=F
 DIIS: error= 1.96D-04 at cycle   6 NSaved=   6.
 NSaved= 6 IEnMin= 6 EnMin= -469.476364227411     IErMin= 6 ErrMin= 1.96D-04
 ErrMax= 1.96D-04  0.00D+00 EMaxC= 1.00D+00 BMatC= 3.16D-06 BMatP= 5.39D-06
 IDIUse=1 WtCom= 1.00D+00 WtEn= 0.00D+00
 Coeff-Com:  0.705D-03-0.392D-03 0.736D-02-0.584D-01-0.303D+00 0.135D+01
 Coeff:      0.705D-03-0.392D-03 0.736D-02-0.584D-01-0.303D+00 0.135D+01
 Gap=     0.112 Goal=   None    Shift=    0.000
 RMSDP=3.27D-05 MaxDP=2.24D-04 DE=-8.39D-06 OVMax= 9.53D-04

 Cycle   7  Pass 1  IDiag  1:
 E= -469.476366746644     Delta-E=       -0.000002519233 Rises=F Damp=F
 DIIS: error= 3.57D-05 at cycle   7 NSaved=   7.
 NSaved= 7 IEnMin= 7 EnMin= -469.476366746644     IErMin= 7 ErrMin= 3.57D-05
 ErrMax= 3.57D-05  0.00D+00 EMaxC= 1.00D+00 BMatC= 1.05D-07 BMatP= 3.16D-06
 IDIUse=1 WtCom= 1.00D+00 WtEn= 0.00D+00
 Coeff-Com: -0.851D-04-0.186D-04 0.794D-02-0.695D-02-0.419D-01-0.382D-01
 Coeff-Com:  0.108D+01
 Coeff:     -0.851D-04-0.186D-04 0.794D-02-0.695D-02-0.419D-01-0.382D-01
 Coeff:      0.108D+01
 Gap=     0.112 Goal=   None    Shift=    0.000
 RMSDP=3.19D-06 MaxDP=4.78D-05 DE=-2.52D-06 OVMax= 6.76D-05

 Cycle   8  Pass 1  IDiag  1:
 E= -469.476366810341     Delta-E=       -0.000000063697 Rises=F Damp=F
 DIIS: error= 7.87D-06 at cycle   8 NSaved=   8.
 NSaved= 8 IEnMin= 8 EnMin= -469.476366810341     IErMin= 8 ErrMin= 7.87D-06
 ErrMax= 7.87D-06  0.00D+00 EMaxC= 1.00D+00 BMatC= 3.72D-09 BMatP= 1.05D-07
 IDIUse=1 WtCom= 1.00D+00 WtEn= 0.00D+00
 Coeff-Com:  0.282D-04-0.329D-05-0.227D-02 0.630D-03 0.368D-01-0.733D-01
 Coeff-Com: -0.103D+00 0.114D+01
 Coeff:      0.282D-04-0.329D-05-0.227D-02 0.630D-03 0.368D-01-0.733D-01
 Coeff:     -0.103D+00 0.114D+01
 Gap=     0.112 Goal=   None    Shift=    0.000
 RMSDP=1.17D-06 MaxDP=1.15D-05 DE=-6.37D-08 OVMax= 3.16D-05

 Cycle   9  Pass 1  IDiag  1:
 E= -469.476366813626     Delta-E=       -0.000000003284 Rises=F Damp=F
 DIIS: error= 1.08D-06 at cycle   9 NSaved=   9.
 NSaved= 9 IEnMin= 9 EnMin= -469.476366813626     IErMin= 9 ErrMin= 1.08D-06
 ErrMax= 1.08D-06  0.00D+00 EMaxC= 1.00D+00 BMatC= 7.83D-11 BMatP= 3.72D-09
 IDIUse=1 WtCom= 1.00D+00 WtEn= 0.00D+00
 Coeff-Com:  0.164D-05-0.241D-06 0.213D-04 0.453D-04-0.229D-02 0.483D-02
 Coeff-Com: -0.460D-02-0.210D+00 0.121D+01
[...]
 Coeff:      0.174D-04-0.273D-02 0.441D-02-0.636D-02-0.216D+00 0.122D+01
 Gap=     0.115 Goal=   None    Shift=    0.000
 RMSDP=2.70D-06 MaxDP=1.55D-05 DE=-9.91D-08 OVMax= 7.95D-05

 Cycle   7  Pass 1  IDiag  1:
 E= -469.477183837808     Delta-E=       -0.000000010049 Rises=F Damp=F
 DIIS: error= 2.16D-06 at cycle   7 NSaved=   7.
 NSaved= 7 IEnMin= 7 EnMin= -469.477183837808     IErMin= 7 ErrMin= 2.16D-06
 ErrMax= 2.16D-06  0.00D+00 EMaxC= 1.00D-01 BMatC= 2.73D-10 BMatP= 6.94D-09
 IDIUse=1 WtCom= 1.00D+00 WtEn= 0.00D+00
 Coeff-Com: -0.605D-04-0.599D-03 0.569D-02 0.285D-02-0.953D-01 0.588D-01
 Coeff-Com:  0.103D+01
 Coeff:     -0.605D-04-0.599D-03 0.569D-02 0.285D-02-0.953D-01 0.588D-01
 Coeff:      0.103D+01
 Gap=     0.115 Goal=   None    Shift=    0.000
 RMSDP=6.18D-07 MaxDP=4.53D-06 DE=-1.00D-08 OVMax= 1.75D-05

 Cycle   8  Pass 1  IDiag  1:
 E= -469.477183838226     Delta-E=       -0.000000000418 Rises=F Damp=F
 DIIS: error= 1.01D-07 at cycle   8 NSaved=   8.
 NSaved= 8 IEnMin= 8 EnMin= -469.477183838226     IErMin= 8 ErrMin= 1.01D-07
 ErrMax= 1.01D-07  0.00D+00 EMaxC= 1.00D-01 BMatC= 8.15D-13 BMatP= 2.73D-10
 IDIUse=1 WtCom= 1.00D+00 WtEn= 0.00D+00
 Coeff-Com: -0.107D-05 0.324D-04-0.184D-03-0.643D-04 0.695D-02-0.169D-01
 Coeff-Com: -0.577D-01 0.107D+01
 Coeff:     -0.107D-05 0.324D-04-0.184D-03-0.643D-04 0.695D-02-0.169D-01
 Coeff:     -0.577D-01 0.107D+01
 Gap=     0.115 Goal=   None    Shift=    0.000
 RMSDP=2.49D-08 MaxDP=1.82D-07 DE=-4.18D-10 OVMax= 5.92D-07

 Cycle   9  Pass 1  IDiag  1:
 E= -469.477183838227     Delta-E=       -0.000000000001 Rises=F Damp=F
 DIIS: error= 2.02D-08 at cycle   9 NSaved=   9.
 NSaved= 9 IEnMin= 9 EnMin= -469.477183838227     IErMin= 9 ErrMin= 2.02D-08
 ErrMax= 2.02D-08  0.00D+00 EMaxC= 1.00D-01 BMatC= 3.01D-14 BMatP= 8.15D-13
 IDIUse=1 WtCom= 1.00D+00 WtEn= 0.00D+00
 Coeff-Com:  0.199D-06-0.201D-05-0.781D-05-0.128D-04 0.404D-04 0.525D-03
 Coeff-Com:  0.669D-03-0.548D-01 0.105D+01
 Coeff:      0.199D-06-0.201D-05-0.781D-05-0.128D-04 0.404D-04 0.525D-03
 Coeff:      0.669D-03-0.548D-01 0.105D+01
 Gap=     0.115 Goal=   None    Shift=    0.000
 RMSDP=2.07D-09 MaxDP=3.35D-08 DE=-1.25D-12 OVMax= 3.83D-08

 SCF Done:  E(RPBE1PBE) =  -469.477183838     A.U. after    9 cycles
            NFock=  9  Conv=0.21D-08     -V/T= 2.1632
 KE= 4.035996975318D+02 PE=-1.641622667783D+03 EE= 5.175048905304D+02
 Leave Link  502 at Sat Oct 18 12:15:32 2025, MaxMem=  4294967296 cpu:               1.7 elap:               0.2
 (Enter /opt/modules/software/gaussian/G16-C01/l508.exe)
 QCSCF skips out because SCF is already converged.
 Leave Link  508 at Sat Oct 18 12:15:32 2025, MaxMem=  4294967296 cpu:               0.0 elap:               0.0
 (Enter /opt/modules/software/gaussian/G16-C01/l701.exe)
 ... and contract with generalized density number  0.
 Compute integral first derivatives.
   8 Symmetry operations used in ECPInt.
 ECPInt:  NShTT=     406 NPrTT=    3130 LenC2=     407 LenP2D=    2344.
 LDataN:  DoStor=T MaxTD1= 5 Len=  102
 Leave Link  701 at Sat Oct 18 12:15:32 2025, MaxMem=  4294967296 cpu:               0.7 elap:               0.1
 (Enter /opt/modules/software/gaussian/G16-C01/l702.exe)
 L702 exits ... SP integral derivatives will be done elsewhere.
 Leave Link  702 at Sat Oct 18 12:15:32 2025, MaxMem=  4294967296 cpu:               0.1 elap:               0.0
 (Enter /opt/modules/software/gaussian/G16-C01/l703.exe)
 Integral derivatives from FoFJK, PRISM(SPDF).
 Compute integral first derivatives, UseDBF=F ICtDFT=           0.
 Calling FoFJK, ICntrl=      2127 FMM=F ISym2X=1 I1Cent= 0 IOpClX= 0 NMat=1 NMatS=1 NMatT=0.
 FoFJK:  IHMeth= 1 ICntrl=    2127 DoSepK=F KAlg= 0 I1Cent=           0 FoldK=F
 IRaf=         0 NMat=       1 IRICut=       1 DoRegI=T DoRafI=F ISym2E= 1 IDoP0=0 IntGTp=1.
 FoFCou: FMM=F IPFlag=           0 FMFlag=      100000 FMFlg1=         800
         NFxFlg=           0 DoJE=F BraDBF=F KetDBF=F FulRan=T
         wScrn=  0.000000 ICntrl=      2127 IOpCl=  0 I1Cent=           0 NGrid=           0
         NMat0=    1 NMatS0=      1 NMatT0=    0 NMatD0=    1 NMtDS0=    0 NMtDT0=    0
 Petite list used in FoFCou.
 Leave Link  703 at Sat Oct 18 12:15:32 2025, MaxMem=  4294967296 cpu:               1.4 elap:               0.2
 (Enter /opt/modules/software/gaussian/G16-C01/l716.exe)
 Dipole        = 1.49038011D-15 0.00000000D+00-1.77635684D-15
 ***** Axes restored to original set *****
 -------------------------------------------------------------------
 Center     Atomic                   Forces (Hartrees/Bohr)
 Number     Number              X              Y              Z
 -------------------------------------------------------------------
      1       28           0.000000000    0.000000000   -0.000000000
      2        8          -0.000217618    0.000125089    0.000088451
      3        8          -0.000000000   -0.000250730    0.000089233
      4        8          -0.000000000    0.000000553   -0.000266135
      5        8           0.000217618    0.000125088    0.000088451
 -------------------------------------------------------------------
 Cartesian Forces:  Max     0.000266135 RMS     0.000137432
 Leave Link  716 at Sat Oct 18 12:15:32 2025, MaxMem=  4294967296 cpu:               0.1 elap:               0.0
 (Enter /opt/modules/software/gaussian/G16-C01/l103.exe)

 GradGradGradGradGradGradGradGradGradGradGradGradGradGradGradGradGradGrad
 Berny optimization.
 Using GEDIIS/GDIIS optimizer.
 FormGI is forming the generalized inverse of G from B-inverse, IUseBI=4.
 Internal  Forces:  Max     0.000266135 RMS     0.000142256
 Search for a local minimum.
 Step number   4 out of a maximum of  100
 All quantities printed in internal units (Hartrees-Bohrs-Radians)
 RMS Force = .14226D-03 SwitMx=.10000D-02 MixMth= 2
 Mixed Optimization -- En-DIIS/RFO-DIIS
 Update second derivatives using D2CorX and points    3    4
 DE= -8.17D-04 DEPred=-1.15D-03 R= 7.11D-01
 TightC=F SS=  1.41D+00  RLast= 8.13D-02 DXNew= 8.4853D-01 2.4401D-01
 Trust test= 7.11D-01 RLast= 8.13D-02 DXMaxT set to 5.05D-01
 The second derivative matrix:
                          R1        R2        R3        R4        A1
           R1           0.17793
           R2           0.02556   0.17793
           R3           0.02556   0.02556   0.17793
           R4           0.02556   0.02556   0.02556   0.17793
           A1          -0.00000  -0.00000  -0.00000  -0.00000   0.25000
           A2          -0.00000  -0.00000  -0.00000  -0.00000  -0.00000
           A3           0.00000   0.00000   0.00000   0.00000   0.00000
           A4           0.00001   0.00001   0.00001   0.00001   0.00000
           A5          -0.00000  -0.00000  -0.00000  -0.00000  -0.00000
           A6          -0.00000  -0.00000  -0.00000  -0.00000  -0.00000
           D1          -0.00000  -0.00000  -0.00000  -0.00000   0.00000
           D2           0.00000   0.00000   0.00000   0.00000  -0.00000
           D3          -0.00000  -0.00000  -0.00000  -0.00000   0.00000
           D4          -0.00000  -0.00000  -0.00000  -0.00000   0.00000
                          A2        A3        A4        A5        A6
           A2           0.25000
           A3           0.00000   0.25000
           A4           0.00000  -0.00000   0.25000
           A5          -0.00000   0.00000   0.00000   0.25000
           A6          -0.00000   0.00000   0.00000  -0.00000   0.25000
           D1           0.00000  -0.00000  -0.00000   0.00000   0.00000
           D2          -0.00000   0.00000   0.00000  -0.00000  -0.00000
           D3           0.00000  -0.00000  -0.00000   0.00000   0.00000
           D4           0.00000  -0.00000  -0.00000   0.00000   0.00000
                          D1        D2        D3        D4
           D1           0.02495
           D2          -0.00000   0.02495
           D3           0.00000  -0.00000   0.02495
           D4           0.00000  -0.00000   0.00000   0.02495
 ITU=  1  0  1  0
 Use linear search instead of GDIIS.
     Eigenvalues ---    0.09419   0.10323   0.14498   0.15237   0.15237
     Eigenvalues ---    0.15237   0.25000   0.25000   0.25459
 RFO step:  Lambda= 0.00000000D+00 EMin= 9.41949825D-02
 Quartic linear search produced a step of -0.02416.
 Iteration  1 RMS(Cart)=  0.00052522 RMS(Int)=  0.00000000
 Iteration  2 RMS(Cart)=  0.00000000 RMS(Int)=  0.00000000
 ITry= 1 IFail=0 DXMaxC= 9.82D-04 DCOld= 1.00D+10 DXMaxT= 5.05D-01 DXLimC= 3.00D+00 Rises=F
 ClnCor:  largest displacement from symmetrization is 5.12D-07 for atom     3.
 Variable       Old X    -DE/DX   Delta X   Delta X   Delta X     New X
                                 (Linear)    (Quad)   (Total)
    R1        3.23115   0.00027   0.00098   0.00000   0.00098   3.23213
    R2        3.23115   0.00027   0.00098   0.00000   0.00098   3.23213
    R3        3.23115   0.00027   0.00098   0.00000   0.00098   3.23213
    R4        3.23115   0.00027   0.00098   0.00000   0.00098   3.23213
    A1        1.91062  -0.00000   0.00000  -0.00000  -0.00000   1.91062
    A2        1.91062  -0.00000   0.00000  -0.00000  -0.00000   1.91062
    A3        1.91065   0.00000  -0.00000   0.00001   0.00000   1.91066
    A4        1.91065   0.00000  -0.00000   0.00000   0.00000   1.91066
    A5        1.91062  -0.00000   0.00000  -0.00000  -0.00000   1.91062
    A6        1.91062  -0.00000   0.00000  -0.00000  -0.00000   1.91062
    D1       -2.09439   0.00000  -0.00000   0.00000   0.00000  -2.09439
    D2        2.09439  -0.00000   0.00000  -0.00000  -0.00000   2.09439
    D3       -2.09439   0.00000  -0.00000   0.00000   0.00000  -2.09439
    D4        2.09441   0.00000  -0.00000   0.00000   0.00000   2.09441
         Item               Value     Threshold  Converged?
 Maximum Force            0.000266     0.000450     YES
 RMS     Force            0.000142     0.000300     YES
 Maximum Displacement     0.000983     0.001800     YES
 RMS     Displacement     0.000525     0.001200     YES
 Predicted change in Energy=-5.544202D-07
 Optimization completed.
    -- Stationary point found.
                           ----------------------------
                           !   Optimized Parameters   !
                           ! (Angstroms and Degrees)  !
 --------------------------                            --------------------------
 ! Name  Definition              Value          Derivative Info.                !
 --------------------------------------------------------------------------------
 ! R1    R(1,2)                  1.7099         -DE/DX =    0.0003              !
 ! R2    R(1,3)                  1.7099         -DE/DX =    0.0003              !
 ! R3    R(1,4)                  1.7099         -DE/DX =    0.0003              !
 ! R4    R(1,5)                  1.7099         -DE/DX =    0.0003              !
 ! A1    A(2,1,3)              109.4706         -DE/DX =    0.0                 !
 ! A2    A(2,1,4)              109.4706         -DE/DX =    0.0                 !
 ! A3    A(2,1,5)              109.4724         -DE/DX =    0.0                 !
 ! A4    A(3,1,4)              109.4724         -DE/DX =    0.0                 !
 ! A5    A(3,1,5)              109.4706         -DE/DX =    0.0                 !
 ! A6    A(4,1,5)              109.4706         -DE/DX =    0.0                 !
 ! D1    D(2,1,4,3)           -119.9996         -DE/DX =    0.0                 !
 ! D2    D(2,1,5,3)            119.9996         -DE/DX =    0.0                 !
 ! D3    D(2,1,5,4)           -119.9996         -DE/DX =    0.0                 !
 ! D4    D(3,1,5,4)            120.0007         -DE/DX =    0.0                 !
 --------------------------------------------------------------------------------
 Lowest energy point so far.  Saving SCF results.
 Largest change from initial coordinates is atom    3       0.260 Angstoms.
 GradGradGradGradGradGradGradGradGradGradGradGradGradGradGradGradGradGrad

 Leave Link  103 at Sat Oct 18 12:15:32 2025, MaxMem=  4294967296 cpu:               0.0 elap:               0.0
 (Enter /opt/modules/software/gaussian/G16-C01/l202.exe)
                          Input orientation:                          
 ---------------------------------------------------------------------
 Center     Atomic      Atomic             Coordinates (Angstroms)
 Number     Number       Type             X           Y           Z
 ---------------------------------------------------------------------
      1         28           0        1.499070   -0.865489    3.059964
      2          8           0        0.102972   -0.059469    3.629906
      3          8           0        1.499070   -2.477546    3.629933
      4          8           0        1.499069   -0.865472    1.350113
      5          8           0        2.895169   -0.059470    3.629905
 ---------------------------------------------------------------------
                    Distance matrix (angstroms):
                    1          2          3          4          5
     1  Ni   0.000000
     2  O    1.709851   0.000000
     3  O    1.709851   2.792165   0.000000
     4  O    1.709851   2.792165   2.792197   0.000000
     5  O    1.709851   2.792197   2.792165   2.792165   0.000000
 Stoichiometry    NiO4(2-)
 Framework group  D2D[O(Ni),2SGD(O2)]
 Deg. of freedom     2
 Full point group                 D2D     NOp   8
 RotChk:  IX=0 Diff= 1.69D-11
 Largest Abelian subgroup         C2V     NOp   4
 Largest concise Abelian subgroup C2V     NOp   4
                         Standard orientation:                         
 ---------------------------------------------------------------------
 Center     Atomic      Atomic             Coordinates (Angstroms)
 Number     Number       Type             X           Y           Z
 ---------------------------------------------------------------------
      1         28           0        0.000000    0.000000    0.000000
      2          8           0        0.000000    1.396098    0.987168
      3          8           0       -1.396098    0.000000   -0.987168
      4          8           0        1.396098   -0.000000   -0.987168
      5          8           0        0.000000   -1.396098    0.987168
 ---------------------------------------------------------------------
 Rotational constants (GHZ):           4.0527803           4.0527803           4.0526888
 Leave Link  202 at Sat Oct 18 12:15:33 2025, MaxMem=  4294967296 cpu:               0.0 elap:               0.0
 (Enter /opt/modules/software/gaussian/G16-C01/l601.exe)
 Copying SCF densities to generalized density rwf, IOpCl= 0 IROHF=0.

 **********************************************************************

            Population analysis using the SCF Density.

 **********************************************************************

 Orbital symmetries:
       Occupied  (A1) (B2) (E) (E) (A1) (E) (E) (B2) (A1) (E) (E)
                 (B2) (B1) (A1) (B2) (E) (E) (A1) (E) (E) (B2)
                 (E) (E) (A2) (B1) (A1)
       Virtual   (E) (E) (B2) (E) (E) (B2) (A1) (B2) (E) (E) (A1)
                 (B2) (E) (E) (B1) (A1) (E) (E) (A2) (E) (E) (B2)
                 (A1) (B1) (E) (E) (B2) (A1) (B2) (E) (E) (A1)
 The electronic state is 1-A1.
 Alpha  occ. eigenvalues --  -18.81469 -18.81469 -18.81469 -18.81469  -3.83854
 Alpha  occ. eigenvalues --   -2.42407  -2.42407  -2.42407  -0.52580  -0.50564
 Alpha  occ. eigenvalues --   -0.50564  -0.50564  -0.07460  -0.07460  -0.04484
 Alpha  occ. eigenvalues --   -0.04484  -0.04484   0.03633   0.07307   0.07307
 Alpha  occ. eigenvalues --    0.07307   0.12837   0.12837   0.12837   0.13196
 Alpha  occ. eigenvalues --    0.13196
 Alpha virt. eigenvalues --    0.24661   0.24661   0.24662   0.30628   0.30628
 Alpha virt. eigenvalues --    0.30628   0.40905   0.62015   0.62015   0.62015
 Alpha virt. eigenvalues --    0.85600   0.99500   0.99500   0.99500   1.02566
 Alpha virt. eigenvalues --    1.02566   1.19010   1.19010   1.19010   1.22683
 Alpha virt. eigenvalues --    1.22683   1.22684   1.28607   1.28608   1.50907
 Alpha virt. eigenvalues --    1.50907   1.50908   1.69087   1.89579   1.89579
 Alpha virt. eigenvalues --    1.89579   8.07477
          Condensed to atoms (all electrons):
               1          2          3          4          5
     1  Ni  16.427608   0.213838   0.213838   0.213838   0.213838
     2  O    0.213838   8.440752   0.008224   0.008224   0.008223
     3  O    0.213838   0.008224   8.440752   0.008223   0.008224
     4  O    0.213838   0.008224   0.008223   8.440752   0.008224
     5  O    0.213838   0.008223   0.008224   0.008224   8.440752
 Mulliken charges:
               1
     1  Ni   0.717041
     2  O   -0.679260
     3  O   -0.679260
     4  O   -0.679260
     5  O   -0.679260
 Sum of Mulliken charges =  -2.00000
 Mulliken charges with hydrogens summed into heavy atoms:
               1
     1  Ni   0.717041
     2  O   -0.679260
     3  O   -0.679260
     4  O   -0.679260
     5  O   -0.679260
 Electronic spatial extent (au):  <R**2>=            449.8424
 Charge=             -2.0000 electrons
 Dipole moment (field-independent basis, Debye):
    X=              0.0000    Y=              0.0000    Z=             -0.0000  Tot=              0.0000
 Quadrupole moment (field-independent basis, Debye-Ang):
   XX=            -51.8968   YY=            -51.8968   ZZ=            -51.8964
   XY=              0.0000   XZ=              0.0000   YZ=              0.0000
 Traceless Quadrupole moment (field-independent basis, Debye-Ang):
   XX=             -0.0001   YY=             -0.0001   ZZ=              0.0003
   XY=              0.0000   XZ=              0.0000   YZ=              0.0000
 Octapole moment (field-independent basis, Debye-Ang**2):
  XXX=             -0.0000  YYY=              0.0000  ZZZ=             -0.0000  XYY=              0.0000
  XXY=             -0.0000  XXZ=             11.3434  XZZ=             -0.0000  YZZ=             -0.0000
  YYZ=            -11.3434  XYZ=             -0.0000
 Hexadecapole moment (field-independent basis, Debye-Ang**3):
 XXXX=           -212.4862 YYYY=           -212.4862 ZZZZ=           -203.8422 XXXY=              0.0000
 XXXZ=              0.0000 YYYX=              0.0000 YYYZ=              0.0000 ZZZX=              0.0000
 ZZZY=             -0.0000 XXYY=            -65.0706 XXZZ=            -73.7065 YYZZ=            -73.7065
 XXYZ=              0.0000 YYXZ=              0.0000 ZZXY=              0.0000
 N-N= 2.510408958829D+02 E-N=-1.641622670221D+03  KE= 4.035996975318D+02
 Symmetry A1   KE= 1.859002165117D+02
 Symmetry A2   KE= 2.749587068801D+01
 Symmetry B1   KE= 9.510180516605D+01
 Symmetry B2   KE= 9.510180516605D+01
 No NMR shielding tensors so no spin-rotation constants.
 Leave Link  601 at Sat Oct 18 12:15:33 2025, MaxMem=  4294967296 cpu:               0.4 elap:               0.1
 (Enter /opt/modules/software/gaussian/G16-C01/l9999.exe)
 Unable to Open any file for archive entry.
 1\1\GINC-PRCC02008\FOpt\RPBE1PBE\GenECP\Ni1O4(2-)\FUTERA\18-Oct-2025\0
 \\#p PBE1PBE/GenECP SCF(Tight,XQC,MaxCycle=500,MaxConventional=20) Opt
 (MaxCycle=500)\\Nickel ferrate (PBE0/LANL2DZ)\\-2,1\Ni,1.4990701333,-0
 .865489,3.0599642667\O,0.1029722687,-0.0594687546,3.6299063599\O,1.499
 069835,-2.4775460757,3.6299325624\O,1.4990694819,-0.8654715223,1.35011
 28483\O,2.8951689477,-0.0594696474,3.6299052961\\Version=ES64L-G16RevC
 .01\State=1-A1\HF=-469.4771838\RMSD=2.073e-09\RMSF=1.374e-04\Dipole=0.
 ,0.,0.\Quadrupole=-0.0001077,0.0001077,0.,0.,0.,0.0001523\PG=D02D [O(N
 i1),2SGD(O2)]\\@
 The archive entry for this job was punched.


 I am not a vegetarian because I love animals;
 I am a vegetarian because I hate plants.
                               -- A. Whitney Brown
 Job cpu time:       0 days  0 hours  0 minutes 27.3 seconds.
 Elapsed time:       0 days  0 hours  0 minutes  3.5 seconds.
 File lengths (MBytes):  RWF=      6 Int=      0 D2E=      0 Chk=      1 Scr=      1
 Normal termination of Gaussian 16 at Sat Oct 18 12:15:33 2025.
